
     Program Q2R v.5.0          starts on 17Jul2012 at 17:16:37 

     This program is part of the open-source Quantum ESPRESSO suite
     for quantum simulation of materials; please cite
         "P. Giannozzi et al., J. Phys.:Condens. Matter 21 395502 (2009);
          URL http://www.quantum-espresso.org", 
     in publications or presentations arising from this work. More details at
     http://www.quantum-espresso.org/quote.php

     Parallel version (MPI), running on     1 processors

     reading grid info from file si.dyn0
  reading force constants from file si.dyn1
 macroscopic fields = T
  14.01174   0.00000   0.00000
   0.00000  14.01174   0.00000
   0.00000   0.00000  14.01174
  na=            1
  -0.09112   0.00000   0.00000
   0.00000  -0.09112   0.00000
   0.00000   0.00000  -0.09112
  na=            2
  -0.09112   0.00000   0.00000
   0.00000  -0.09112   0.00000
   0.00000   0.00000  -0.09112
  nqs=            1
 q=   0.00000000  0.00000000  0.00000000
  reading force constants from file si.dyn2
  nqs=            8
 q=  -0.12500000  0.12500000 -0.12500000
 q=   0.12500000 -0.12500000 -0.12500000
 q=   0.12500000 -0.12500000  0.12500000
 q=  -0.12500000  0.12500000  0.12500000
 q=   0.12500000  0.12500000 -0.12500000
 q=  -0.12500000 -0.12500000 -0.12500000
 q=  -0.12500000 -0.12500000  0.12500000
 q=   0.12500000  0.12500000  0.12500000
  reading force constants from file si.dyn3
  nqs=            8
 q=  -0.25000000  0.25000000 -0.25000000
 q=   0.25000000 -0.25000000 -0.25000000
 q=   0.25000000 -0.25000000  0.25000000
 q=  -0.25000000  0.25000000  0.25000000
 q=   0.25000000  0.25000000 -0.25000000
 q=  -0.25000000 -0.25000000 -0.25000000
 q=  -0.25000000 -0.25000000  0.25000000
 q=   0.25000000  0.25000000  0.25000000
  reading force constants from file si.dyn4
  nqs=            8
 q=  -0.37500000  0.37500000 -0.37500000
 q=   0.37500000 -0.37500000 -0.37500000
 q=   0.37500000 -0.37500000  0.37500000
 q=  -0.37500000  0.37500000  0.37500000
 q=   0.37500000  0.37500000 -0.37500000
 q=  -0.37500000 -0.37500000 -0.37500000
 q=  -0.37500000 -0.37500000  0.37500000
 q=   0.37500000  0.37500000  0.37500000
  reading force constants from file si.dyn5
  nqs=            4
 q=   0.50000000 -0.50000000  0.50000000
 q=   0.50000000  0.50000000  0.50000000
 q=  -0.50000000  0.50000000  0.50000000
 q=   0.50000000  0.50000000 -0.50000000
  reading force constants from file si.dyn6
  nqs=            6
 q=   0.00000000  0.25000000  0.00000000
 q=   0.00000000 -0.25000000  0.00000000
 q=   0.25000000  0.00000000  0.00000000
 q=   0.00000000  0.00000000  0.25000000
 q=   0.00000000  0.00000000 -0.25000000
 q=  -0.25000000  0.00000000  0.00000000
  reading force constants from file si.dyn7
  nqs=           24
 q=  -0.12500000  0.37500000 -0.12500000
 q=  -0.12500000  0.37500000  0.12500000
 q=   0.12500000  0.37500000 -0.12500000
 q=   0.12500000  0.37500000  0.12500000
 q=   0.12500000 -0.37500000  0.12500000
 q=   0.37500000 -0.12500000  0.12500000
 q=   0.12500000 -0.12500000  0.37500000
 q=  -0.12500000 -0.37500000 -0.12500000
 q=   0.12500000 -0.37500000 -0.12500000
 q=  -0.12500000 -0.37500000  0.12500000
 q=   0.12500000 -0.12500000 -0.37500000
 q=   0.37500000 -0.12500000 -0.12500000
 q=  -0.37500000 -0.12500000  0.12500000
 q=   0.37500000  0.12500000  0.12500000
 q=  -0.12500000 -0.12500000  0.37500000
 q=   0.12500000  0.12500000  0.37500000
 q=  -0.37500000  0.12500000 -0.12500000
 q=  -0.12500000  0.12500000 -0.37500000
 q=  -0.37500000 -0.12500000 -0.12500000
 q=   0.12500000  0.12500000 -0.37500000
 q=   0.37500000  0.12500000 -0.12500000
 q=  -0.12500000 -0.12500000 -0.37500000
 q=  -0.37500000  0.12500000  0.12500000
 q=  -0.12500000  0.12500000  0.37500000
  reading force constants from file si.dyn8
  nqs=           24
 q=  -0.25000000  0.50000000 -0.25000000
 q=  -0.25000000  0.50000000  0.25000000
 q=   0.25000000  0.50000000 -0.25000000
 q=   0.25000000  0.50000000  0.25000000
 q=   0.25000000 -0.50000000  0.25000000
 q=   0.50000000 -0.25000000  0.25000000
 q=   0.25000000 -0.25000000  0.50000000
 q=  -0.25000000 -0.50000000 -0.25000000
 q=   0.25000000 -0.50000000 -0.25000000
 q=  -0.25000000 -0.50000000  0.25000000
 q=   0.25000000 -0.25000000 -0.50000000
 q=   0.50000000 -0.25000000 -0.25000000
 q=  -0.50000000 -0.25000000  0.25000000
 q=   0.50000000  0.25000000  0.25000000
 q=  -0.25000000 -0.25000000  0.50000000
 q=   0.25000000  0.25000000  0.50000000
 q=  -0.50000000  0.25000000 -0.25000000
 q=  -0.25000000  0.25000000 -0.50000000
 q=  -0.50000000 -0.25000000 -0.25000000
 q=   0.25000000  0.25000000 -0.50000000
 q=   0.50000000  0.25000000 -0.25000000
 q=  -0.25000000 -0.25000000 -0.50000000
 q=  -0.50000000  0.25000000  0.25000000
 q=  -0.25000000  0.25000000  0.50000000
  reading force constants from file si.dyn9
  nqs=           24
 q=   0.62500000 -0.37500000  0.62500000
 q=   0.62500000 -0.37500000 -0.62500000
 q=  -0.62500000 -0.37500000  0.62500000
 q=  -0.62500000 -0.37500000 -0.62500000
 q=  -0.62500000  0.37500000 -0.62500000
 q=  -0.37500000  0.62500000 -0.62500000
 q=  -0.62500000  0.62500000 -0.37500000
 q=   0.62500000  0.37500000  0.62500000
 q=  -0.62500000  0.37500000  0.62500000
 q=   0.62500000  0.37500000 -0.62500000
 q=  -0.62500000  0.62500000  0.37500000
 q=  -0.37500000  0.62500000  0.62500000
 q=   0.37500000  0.62500000 -0.62500000
 q=  -0.37500000 -0.62500000 -0.62500000
 q=   0.62500000  0.62500000 -0.37500000
 q=  -0.62500000 -0.62500000 -0.37500000
 q=   0.37500000 -0.62500000  0.62500000
 q=   0.62500000 -0.62500000  0.37500000
 q=   0.37500000  0.62500000  0.62500000
 q=  -0.62500000 -0.62500000  0.37500000
 q=  -0.37500000 -0.62500000  0.62500000
 q=   0.62500000  0.62500000  0.37500000
 q=   0.37500000 -0.62500000 -0.62500000
 q=   0.62500000 -0.62500000 -0.37500000
  reading force constants from file si.dyn10
  nqs=           24
 q=   0.50000000 -0.25000000  0.50000000
 q=   0.50000000 -0.25000000 -0.50000000
 q=  -0.50000000 -0.25000000  0.50000000
 q=  -0.50000000 -0.25000000 -0.50000000
 q=  -0.50000000  0.25000000 -0.50000000
 q=  -0.25000000  0.50000000 -0.50000000
 q=  -0.50000000  0.50000000 -0.25000000
 q=   0.50000000  0.25000000  0.50000000
 q=  -0.50000000  0.25000000  0.50000000
 q=   0.50000000  0.25000000 -0.50000000
 q=  -0.50000000  0.50000000  0.25000000
 q=  -0.25000000  0.50000000  0.50000000
 q=   0.25000000  0.50000000 -0.50000000
 q=  -0.25000000 -0.50000000 -0.50000000
 q=   0.50000000  0.50000000 -0.25000000
 q=  -0.50000000 -0.50000000 -0.25000000
 q=   0.25000000 -0.50000000  0.50000000
 q=   0.50000000 -0.50000000  0.25000000
 q=   0.25000000  0.50000000  0.50000000
 q=  -0.50000000 -0.50000000  0.25000000
 q=  -0.25000000 -0.50000000  0.50000000
 q=   0.50000000  0.50000000  0.25000000
 q=   0.25000000 -0.50000000 -0.50000000
 q=   0.50000000 -0.50000000 -0.25000000
  reading force constants from file si.dyn11
  nqs=           24
 q=   0.37500000 -0.12500000  0.37500000
 q=   0.37500000 -0.12500000 -0.37500000
 q=  -0.37500000 -0.12500000  0.37500000
 q=  -0.37500000 -0.12500000 -0.37500000
 q=  -0.37500000  0.12500000 -0.37500000
 q=  -0.12500000  0.37500000 -0.37500000
 q=  -0.37500000  0.37500000 -0.12500000
 q=   0.37500000  0.12500000  0.37500000
 q=  -0.37500000  0.12500000  0.37500000
 q=   0.37500000  0.12500000 -0.37500000
 q=  -0.37500000  0.37500000  0.12500000
 q=  -0.12500000  0.37500000  0.37500000
 q=   0.12500000  0.37500000 -0.37500000
 q=  -0.12500000 -0.37500000 -0.37500000
 q=   0.37500000  0.37500000 -0.12500000
 q=  -0.37500000 -0.37500000 -0.12500000
 q=   0.12500000 -0.37500000  0.37500000
 q=   0.37500000 -0.37500000  0.12500000
 q=   0.12500000  0.37500000  0.37500000
 q=  -0.37500000 -0.37500000  0.12500000
 q=  -0.12500000 -0.37500000  0.37500000
 q=   0.37500000  0.37500000  0.12500000
 q=   0.12500000 -0.37500000 -0.37500000
 q=   0.37500000 -0.37500000 -0.12500000
  reading force constants from file si.dyn12
  nqs=           12
 q=   0.25000000  0.00000000  0.25000000
 q=  -0.25000000  0.00000000  0.25000000
 q=  -0.25000000  0.00000000 -0.25000000
 q=   0.00000000  0.25000000 -0.25000000
 q=  -0.25000000  0.25000000  0.00000000
 q=   0.25000000  0.00000000 -0.25000000
 q=   0.00000000  0.25000000  0.25000000
 q=   0.00000000 -0.25000000 -0.25000000
 q=   0.25000000  0.25000000  0.00000000
 q=  -0.25000000 -0.25000000  0.00000000
 q=   0.00000000 -0.25000000  0.25000000
 q=   0.25000000 -0.25000000  0.00000000
  reading force constants from file si.dyn13
  nqs=            6
 q=   0.00000000  0.50000000  0.00000000
 q=   0.00000000 -0.50000000  0.00000000
 q=   0.50000000  0.00000000  0.00000000
 q=   0.00000000  0.00000000  0.50000000
 q=   0.00000000  0.00000000 -0.50000000
 q=  -0.50000000  0.00000000  0.00000000
  reading force constants from file si.dyn14
  nqs=           24
 q=  -0.12500000  0.62500000 -0.12500000
 q=   0.12500000  0.62500000 -0.12500000
 q=   0.12500000  0.62500000  0.12500000
 q=  -0.12500000  0.62500000  0.12500000
 q=   0.12500000 -0.62500000  0.12500000
 q=   0.62500000 -0.12500000  0.12500000
 q=   0.12500000 -0.12500000  0.62500000
 q=  -0.12500000 -0.62500000 -0.12500000
 q=   0.12500000 -0.62500000 -0.12500000
 q=  -0.12500000 -0.62500000  0.12500000
 q=   0.12500000 -0.12500000 -0.62500000
 q=   0.62500000 -0.12500000 -0.12500000
 q=  -0.62500000 -0.12500000  0.12500000
 q=   0.62500000  0.12500000  0.12500000
 q=  -0.12500000 -0.12500000  0.62500000
 q=   0.12500000  0.12500000  0.62500000
 q=  -0.62500000  0.12500000 -0.12500000
 q=  -0.12500000  0.12500000 -0.62500000
 q=  -0.62500000 -0.12500000 -0.12500000
 q=   0.12500000  0.12500000 -0.62500000
 q=   0.62500000  0.12500000 -0.12500000
 q=  -0.12500000 -0.12500000 -0.62500000
 q=  -0.62500000  0.12500000  0.12500000
 q=  -0.12500000  0.12500000  0.62500000
  reading force constants from file si.dyn15
  nqs=           24
 q=   0.75000000 -0.25000000  0.75000000
 q=  -0.75000000 -0.25000000  0.75000000
 q=  -0.75000000 -0.25000000 -0.75000000
 q=   0.75000000 -0.25000000 -0.75000000
 q=  -0.75000000  0.25000000 -0.75000000
 q=  -0.25000000  0.75000000 -0.75000000
 q=  -0.75000000  0.75000000 -0.25000000
 q=   0.75000000  0.25000000  0.75000000
 q=  -0.75000000  0.25000000  0.75000000
 q=   0.75000000  0.25000000 -0.75000000
 q=  -0.75000000  0.75000000  0.25000000
 q=  -0.25000000  0.75000000  0.75000000
 q=   0.25000000  0.75000000 -0.75000000
 q=  -0.25000000 -0.75000000 -0.75000000
 q=   0.75000000  0.75000000 -0.25000000
 q=  -0.75000000 -0.75000000 -0.25000000
 q=   0.25000000 -0.75000000  0.75000000
 q=   0.75000000 -0.75000000  0.25000000
 q=   0.25000000  0.75000000  0.75000000
 q=  -0.75000000 -0.75000000  0.25000000
 q=  -0.25000000 -0.75000000  0.75000000
 q=   0.75000000  0.75000000  0.25000000
 q=   0.25000000 -0.75000000 -0.75000000
 q=   0.75000000 -0.75000000 -0.25000000
  reading force constants from file si.dyn16
  nqs=           24
 q=   0.62500000 -0.12500000  0.62500000
 q=  -0.62500000 -0.12500000  0.62500000
 q=  -0.62500000 -0.12500000 -0.62500000
 q=   0.62500000 -0.12500000 -0.62500000
 q=  -0.62500000  0.12500000 -0.62500000
 q=  -0.12500000  0.62500000 -0.62500000
 q=  -0.62500000  0.62500000 -0.12500000
 q=   0.62500000  0.12500000  0.62500000
 q=  -0.62500000  0.12500000  0.62500000
 q=   0.62500000  0.12500000 -0.62500000
 q=  -0.62500000  0.62500000  0.12500000
 q=  -0.12500000  0.62500000  0.62500000
 q=   0.12500000  0.62500000 -0.62500000
 q=  -0.12500000 -0.62500000 -0.62500000
 q=   0.62500000  0.62500000 -0.12500000
 q=  -0.62500000 -0.62500000 -0.12500000
 q=   0.12500000 -0.62500000  0.62500000
 q=   0.62500000 -0.62500000  0.12500000
 q=   0.12500000  0.62500000  0.62500000
 q=  -0.62500000 -0.62500000  0.12500000
 q=  -0.12500000 -0.62500000  0.62500000
 q=   0.62500000  0.62500000  0.12500000
 q=   0.12500000 -0.62500000 -0.62500000
 q=   0.62500000 -0.62500000 -0.12500000
  reading force constants from file si.dyn17
  nqs=           12
 q=   0.50000000  0.00000000  0.50000000
 q=  -0.50000000  0.00000000  0.50000000
 q=  -0.50000000  0.00000000 -0.50000000
 q=   0.50000000  0.00000000 -0.50000000
 q=   0.00000000  0.50000000 -0.50000000
 q=  -0.50000000  0.50000000  0.00000000
 q=   0.00000000  0.50000000  0.50000000
 q=   0.00000000 -0.50000000 -0.50000000
 q=   0.50000000  0.50000000  0.00000000
 q=  -0.50000000 -0.50000000  0.00000000
 q=   0.00000000 -0.50000000  0.50000000
 q=   0.50000000 -0.50000000  0.00000000
  reading force constants from file si.dyn18
  nqs=            6
 q=   0.00000000  0.75000000  0.00000000
 q=   0.00000000 -0.75000000  0.00000000
 q=   0.75000000  0.00000000  0.00000000
 q=   0.00000000  0.00000000  0.75000000
 q=   0.00000000  0.00000000 -0.75000000
 q=  -0.75000000  0.00000000  0.00000000
  reading force constants from file si.dyn19
  nqs=           24
 q=   0.87500000 -0.12500000  0.87500000
 q=  -0.87500000 -0.12500000  0.87500000
 q=  -0.87500000 -0.12500000 -0.87500000
 q=   0.87500000 -0.12500000 -0.87500000
 q=  -0.87500000  0.12500000 -0.87500000
 q=  -0.12500000  0.87500000 -0.87500000
 q=  -0.87500000  0.87500000 -0.12500000
 q=   0.87500000  0.12500000  0.87500000
 q=  -0.87500000  0.12500000  0.87500000
 q=   0.87500000  0.12500000 -0.87500000
 q=  -0.87500000  0.87500000  0.12500000
 q=  -0.12500000  0.87500000  0.87500000
 q=   0.12500000  0.87500000 -0.87500000
 q=  -0.12500000 -0.87500000 -0.87500000
 q=   0.87500000  0.87500000 -0.12500000
 q=  -0.87500000 -0.87500000 -0.12500000
 q=   0.12500000 -0.87500000  0.87500000
 q=   0.87500000 -0.87500000  0.12500000
 q=   0.12500000  0.87500000  0.87500000
 q=  -0.87500000 -0.87500000  0.12500000
 q=  -0.12500000 -0.87500000  0.87500000
 q=   0.87500000  0.87500000  0.12500000
 q=   0.12500000 -0.87500000 -0.87500000
 q=   0.87500000 -0.87500000 -0.12500000
  reading force constants from file si.dyn20
  nqs=           12
 q=   0.75000000  0.00000000  0.75000000
 q=   0.75000000  0.00000000 -0.75000000
 q=  -0.75000000  0.00000000  0.75000000
 q=  -0.75000000  0.00000000 -0.75000000
 q=   0.00000000  0.75000000 -0.75000000
 q=  -0.75000000  0.75000000  0.00000000
 q=   0.00000000  0.75000000  0.75000000
 q=   0.00000000 -0.75000000 -0.75000000
 q=   0.75000000  0.75000000  0.00000000
 q=  -0.75000000 -0.75000000  0.00000000
 q=   0.00000000 -0.75000000  0.75000000
 q=   0.75000000 -0.75000000  0.00000000
  reading force constants from file si.dyn21
  nqs=            3
 q=   0.00000000 -1.00000000  0.00000000
 q=  -1.00000000  0.00000000  0.00000000
 q=   0.00000000  0.00000000 -1.00000000
  reading force constants from file si.dyn22
  nqs=           24
 q=  -0.25000000  0.50000000  0.00000000
 q=   0.00000000 -0.50000000 -0.25000000
 q=  -0.25000000 -0.50000000  0.00000000
 q=   0.00000000  0.50000000  0.25000000
 q=   0.00000000  0.50000000 -0.25000000
 q=   0.25000000  0.50000000  0.00000000
 q=   0.00000000 -0.50000000  0.25000000
 q=   0.25000000 -0.50000000  0.00000000
 q=   0.50000000  0.00000000 -0.25000000
 q=  -0.50000000  0.00000000  0.25000000
 q=   0.50000000  0.00000000  0.25000000
 q=   0.50000000 -0.25000000  0.00000000
 q=   0.00000000 -0.25000000  0.50000000
 q=   0.00000000  0.25000000  0.50000000
 q=   0.00000000 -0.25000000 -0.50000000
 q=  -0.50000000  0.25000000  0.00000000
 q=  -0.50000000  0.00000000 -0.25000000
 q=  -0.25000000  0.00000000 -0.50000000
 q=  -0.50000000 -0.25000000  0.00000000
 q=   0.50000000  0.25000000  0.00000000
 q=   0.25000000  0.00000000 -0.50000000
 q=   0.00000000  0.25000000 -0.50000000
 q=  -0.25000000  0.00000000  0.50000000
 q=   0.25000000  0.00000000  0.50000000
  reading force constants from file si.dyn23
  nqs=           48
 q=   0.62500000 -0.37500000  0.87500000
 q=   0.62500000 -0.37500000 -0.87500000
 q=   0.87500000  0.37500000  0.62500000
 q=   0.62500000  0.37500000  0.87500000
 q=   0.87500000 -0.37500000 -0.62500000
 q=   0.87500000 -0.37500000  0.62500000
 q=  -0.87500000 -0.37500000  0.62500000
 q=  -0.62500000 -0.37500000 -0.87500000
 q=  -0.87500000  0.37500000 -0.62500000
 q=  -0.62500000 -0.37500000  0.87500000
 q=  -0.87500000  0.37500000  0.62500000
 q=   0.87500000  0.37500000 -0.62500000
 q=  -0.62500000  0.37500000  0.87500000
 q=  -0.87500000 -0.37500000 -0.62500000
 q=   0.62500000  0.37500000 -0.87500000
 q=  -0.62500000  0.37500000 -0.87500000
 q=  -0.37500000  0.87500000  0.62500000
 q=   0.37500000  0.87500000 -0.62500000
 q=  -0.37500000 -0.87500000 -0.62500000
 q=  -0.37500000  0.62500000 -0.87500000
 q=   0.87500000  0.62500000 -0.37500000
 q=  -0.37500000  0.87500000 -0.62500000
 q=  -0.87500000 -0.62500000 -0.37500000
 q=  -0.87500000  0.62500000  0.37500000
 q=   0.37500000 -0.62500000  0.87500000
 q=   0.37500000 -0.87500000  0.62500000
 q=   0.62500000 -0.87500000  0.37500000
 q=  -0.87500000  0.62500000 -0.37500000
 q=   0.37500000  0.62500000  0.87500000
 q=  -0.37500000  0.62500000  0.87500000
 q=   0.37500000  0.62500000 -0.87500000
 q=  -0.37500000 -0.62500000 -0.87500000
 q=  -0.62500000 -0.87500000  0.37500000
 q=  -0.37500000 -0.62500000  0.87500000
 q=   0.87500000 -0.62500000  0.37500000
 q=   0.62500000  0.87500000  0.37500000
 q=   0.37500000 -0.62500000 -0.87500000
 q=   0.62500000  0.87500000 -0.37500000
 q=  -0.62500000 -0.87500000 -0.37500000
 q=  -0.62500000  0.87500000 -0.37500000
 q=   0.37500000 -0.87500000 -0.62500000
 q=  -0.37500000 -0.87500000  0.62500000
 q=   0.37500000  0.87500000  0.62500000
 q=   0.62500000 -0.87500000 -0.37500000
 q=  -0.87500000 -0.62500000  0.37500000
 q=  -0.62500000  0.87500000  0.37500000
 q=   0.87500000  0.62500000  0.37500000
 q=   0.87500000 -0.62500000 -0.37500000
  reading force constants from file si.dyn24
  nqs=           24
 q=   0.50000000 -0.25000000  0.75000000
 q=   0.75000000  0.25000000  0.50000000
 q=   0.50000000  0.25000000  0.75000000
 q=   0.75000000 -0.25000000 -0.50000000
 q=   0.75000000 -0.25000000  0.50000000
 q=  -0.75000000 -0.25000000  0.50000000
 q=  -0.50000000 -0.25000000 -0.75000000
 q=  -0.75000000  0.25000000 -0.50000000
 q=  -0.50000000 -0.25000000  0.75000000
 q=  -0.75000000  0.25000000  0.50000000
 q=   0.75000000  0.25000000 -0.50000000
 q=  -0.50000000  0.25000000  0.75000000
 q=  -0.75000000 -0.25000000 -0.50000000
 q=   0.50000000  0.25000000 -0.75000000
 q=  -0.50000000  0.25000000 -0.75000000
 q=  -0.25000000  0.50000000 -0.75000000
 q=   0.75000000  0.50000000 -0.25000000
 q=  -0.75000000 -0.50000000 -0.25000000
 q=  -0.75000000  0.50000000  0.25000000
 q=   0.25000000 -0.50000000  0.75000000
 q=  -0.25000000  0.50000000  0.75000000
 q=   0.25000000  0.50000000 -0.75000000
 q=  -0.25000000 -0.50000000 -0.75000000
 q=   0.50000000 -0.25000000 -0.75000000
  reading force constants from file si.dyn25
  nqs=           24
 q=   0.75000000 -0.25000000  1.00000000
 q=   1.00000000  0.25000000  0.75000000
 q=   0.75000000  0.25000000  1.00000000
 q=   1.00000000 -0.25000000 -0.75000000
 q=   1.00000000 -0.25000000  0.75000000
 q=  -0.75000000 -0.25000000 -1.00000000
 q=  -1.00000000  0.25000000 -0.75000000
 q=  -0.75000000  0.25000000  1.00000000
 q=  -0.25000000  1.00000000  0.75000000
 q=   0.25000000  1.00000000 -0.75000000
 q=  -0.25000000 -1.00000000 -0.75000000
 q=  -0.25000000  0.75000000 -1.00000000
 q=   1.00000000  0.75000000 -0.25000000
 q=  -1.00000000 -0.75000000 -0.25000000
 q=  -1.00000000  0.75000000  0.25000000
 q=   0.25000000 -0.75000000  1.00000000
 q=   0.25000000 -1.00000000  0.75000000
 q=   0.75000000 -1.00000000  0.25000000
 q=   0.25000000  0.75000000  1.00000000
 q=  -0.25000000 -0.75000000 -1.00000000
 q=  -0.75000000 -1.00000000  0.25000000
 q=   1.00000000 -0.75000000  0.25000000
 q=   0.75000000  1.00000000 -0.25000000
 q=  -0.75000000 -1.00000000 -0.25000000
  reading force constants from file si.dyn26
  nqs=           48
 q=   0.62500000 -0.12500000  0.87500000
 q=   0.62500000 -0.12500000 -0.87500000
 q=   0.87500000  0.12500000  0.62500000
 q=   0.62500000  0.12500000  0.87500000
 q=   0.87500000 -0.12500000 -0.62500000
 q=   0.87500000 -0.12500000  0.62500000
 q=  -0.87500000 -0.12500000  0.62500000
 q=  -0.62500000 -0.12500000 -0.87500000
 q=  -0.87500000  0.12500000 -0.62500000
 q=  -0.62500000 -0.12500000  0.87500000
 q=  -0.87500000  0.12500000  0.62500000
 q=   0.87500000  0.12500000 -0.62500000
 q=  -0.62500000  0.12500000  0.87500000
 q=  -0.87500000 -0.12500000 -0.62500000
 q=   0.62500000  0.12500000 -0.87500000
 q=  -0.62500000  0.12500000 -0.87500000
 q=  -0.12500000  0.87500000  0.62500000
 q=   0.12500000  0.87500000 -0.62500000
 q=  -0.12500000 -0.87500000 -0.62500000
 q=  -0.12500000  0.62500000 -0.87500000
 q=   0.87500000  0.62500000 -0.12500000
 q=  -0.12500000  0.87500000 -0.62500000
 q=  -0.87500000 -0.62500000 -0.12500000
 q=  -0.87500000  0.62500000  0.12500000
 q=   0.12500000 -0.62500000  0.87500000
 q=   0.12500000 -0.87500000  0.62500000
 q=   0.62500000 -0.87500000  0.12500000
 q=  -0.87500000  0.62500000 -0.12500000
 q=   0.12500000  0.62500000  0.87500000
 q=  -0.12500000  0.62500000  0.87500000
 q=   0.12500000  0.62500000 -0.87500000
 q=  -0.12500000 -0.62500000 -0.87500000
 q=  -0.62500000 -0.87500000  0.12500000
 q=  -0.12500000 -0.62500000  0.87500000
 q=   0.87500000 -0.62500000  0.12500000
 q=   0.62500000  0.87500000  0.12500000
 q=   0.12500000 -0.62500000 -0.87500000
 q=   0.62500000  0.87500000 -0.12500000
 q=  -0.62500000 -0.87500000 -0.12500000
 q=  -0.62500000  0.87500000 -0.12500000
 q=   0.12500000 -0.87500000 -0.62500000
 q=  -0.12500000 -0.87500000  0.62500000
 q=   0.12500000  0.87500000  0.62500000
 q=   0.62500000 -0.87500000 -0.12500000
 q=  -0.87500000 -0.62500000  0.12500000
 q=  -0.62500000  0.87500000  0.12500000
 q=   0.87500000  0.62500000  0.12500000
 q=   0.87500000 -0.62500000 -0.12500000
  reading force constants from file si.dyn27
  nqs=           24
 q=   0.50000000  0.00000000  0.75000000
 q=   0.75000000  0.00000000  0.50000000
 q=   0.50000000  0.00000000 -0.75000000
 q=   0.75000000  0.00000000 -0.50000000
 q=  -0.75000000  0.00000000  0.50000000
 q=  -0.50000000  0.00000000 -0.75000000
 q=  -0.75000000  0.00000000 -0.50000000
 q=  -0.50000000  0.00000000  0.75000000
 q=   0.00000000  0.75000000  0.50000000
 q=   0.00000000  0.75000000 -0.50000000
 q=   0.00000000 -0.75000000 -0.50000000
 q=   0.00000000  0.50000000 -0.75000000
 q=   0.75000000  0.50000000  0.00000000
 q=  -0.75000000 -0.50000000  0.00000000
 q=  -0.75000000  0.50000000  0.00000000
 q=   0.00000000 -0.50000000  0.75000000
 q=   0.00000000 -0.75000000  0.50000000
 q=   0.50000000 -0.75000000  0.00000000
 q=   0.00000000  0.50000000  0.75000000
 q=   0.00000000 -0.50000000 -0.75000000
 q=  -0.50000000 -0.75000000  0.00000000
 q=   0.75000000 -0.50000000  0.00000000
 q=   0.50000000  0.75000000  0.00000000
 q=  -0.50000000  0.75000000  0.00000000
  reading force constants from file si.dyn28
  nqs=           12
 q=  -0.25000000 -1.00000000  0.00000000
 q=   0.00000000 -1.00000000  0.25000000
 q=   0.00000000 -1.00000000 -0.25000000
 q=   0.25000000 -1.00000000  0.00000000
 q=  -1.00000000  0.00000000 -0.25000000
 q=   1.00000000  0.00000000  0.25000000
 q=  -1.00000000 -0.25000000  0.00000000
 q=   0.00000000 -0.25000000 -1.00000000
 q=   0.00000000  0.25000000 -1.00000000
 q=   1.00000000  0.25000000  0.00000000
 q=  -0.25000000  0.00000000  1.00000000
 q=   0.25000000  0.00000000  1.00000000
  reading force constants from file si.dyn29
  nqs=            6
 q=  -0.50000000 -1.00000000  0.00000000
 q=   0.00000000  1.00000000  0.50000000
 q=   0.50000000 -1.00000000  0.00000000
 q=   0.00000000  1.00000000 -0.50000000
 q=  -1.00000000 -0.50000000  0.00000000
 q=   0.00000000 -0.50000000 -1.00000000

      q-space grid ok, #points =  512

      fft-check success (sum of imaginary terms < 10^-12)
 
     Q2R          :     0.06s CPU         0.09s WALL

 
   This run was terminated on:  17:16:37  17Jul2012            

=------------------------------------------------------------------------------=
   JOB DONE.
=------------------------------------------------------------------------------=
