
     Program PHONON v.5.0       starts on 17Jul2012 at 16:38:51 

     This program is part of the open-source Quantum ESPRESSO suite
     for quantum simulation of materials; please cite
         "P. Giannozzi et al., J. Phys.:Condens. Matter 21 395502 (2009);
          URL http://www.quantum-espresso.org", 
     in publications or presentations arising from this work. More details at
     http://www.quantum-espresso.org/quote.php

     Parallel version (MPI), running on     4 processors
     R & G space division:  proc/pool =    4

     Ultrasoft (Vanderbilt) Pseudopotentials

   Info: using nr1, nr2, nr3 values from input

   Info: using nr1s, nr2s, nr3s values from input

     IMPORTANT: XC functional enforced from input :
     Exchange-correlation      =  SLA  PZ   NOGX NOGC ( 1 1 0 0 0)
     EXX-fraction              =        0.00
     Any further DFT definition will be discarded
     Please, verify this is what you really want

 
     Parallelization info
     --------------------
     sticks:   dense  smooth     PW     G-vecs:    dense   smooth      PW
     Min          63      63     21                  682      682     133
     Max          64      64     22                  686      686     136
     Sum         253     253     85                 2733     2733     537
 


     Dynamical matrices for ( 8, 8, 8,)  uniform grid of q-points
     (  29q-points):
       N         xq(1)         xq(2)         xq(3) 
       1   0.000000000   0.000000000   0.000000000
       2  -0.125000000   0.125000000  -0.125000000
       3  -0.250000000   0.250000000  -0.250000000
       4  -0.375000000   0.375000000  -0.375000000
       5   0.500000000  -0.500000000   0.500000000
       6   0.000000000   0.250000000   0.000000000
       7  -0.125000000   0.375000000  -0.125000000
       8  -0.250000000   0.500000000  -0.250000000
       9   0.625000000  -0.375000000   0.625000000
      10   0.500000000  -0.250000000   0.500000000
      11   0.375000000  -0.125000000   0.375000000
      12   0.250000000   0.000000000   0.250000000
      13   0.000000000   0.500000000   0.000000000
      14  -0.125000000   0.625000000  -0.125000000
      15   0.750000000  -0.250000000   0.750000000
      16   0.625000000  -0.125000000   0.625000000
      17   0.500000000   0.000000000   0.500000000
      18   0.000000000   0.750000000   0.000000000
      19   0.875000000  -0.125000000   0.875000000
      20   0.750000000   0.000000000   0.750000000
      21   0.000000000  -1.000000000   0.000000000
      22  -0.250000000   0.500000000   0.000000000
      23   0.625000000  -0.375000000   0.875000000
      24   0.500000000  -0.250000000   0.750000000
      25   0.750000000  -0.250000000   1.000000000
      26   0.625000000  -0.125000000   0.875000000
      27   0.500000000   0.000000000   0.750000000
      28  -0.250000000  -1.000000000   0.000000000
      29  -0.500000000  -1.000000000   0.000000000

     Calculation of q =    0.0000000   0.0000000   0.0000000

                                                                                

     bravais-lattice index     =            2
     lattice parameter (alat)  =      10.2000  a.u.
     unit-cell volume          =     265.3020 (a.u.)^3
     number of atoms/cell      =            2
     number of atomic types    =            1
     kinetic-energy cut-off    =      18.0000  Ry
     charge density cut-off    =      72.0000  Ry
     convergence threshold     =      1.0E-12
     beta                      =       0.7000
     number of iterations used =            4
     Exchange-correlation      =  SLA  PZ   NOGX NOGC ( 1 1 0 0 0)
     EXX-fraction              =        0.00


     celldm(1)=   10.20000  celldm(2)=    0.00000  celldm(3)=    0.00000
     celldm(4)=    0.00000  celldm(5)=    0.00000  celldm(6)=    0.00000

     crystal axes: (cart. coord. in units of alat)
               a(1) = ( -0.5000  0.0000  0.5000 )  
               a(2) = (  0.0000  0.5000  0.5000 )  
               a(3) = ( -0.5000  0.5000  0.0000 )  

     reciprocal axes: (cart. coord. in units 2 pi/alat)
               b(1) = ( -1.0000 -1.0000  1.0000 )  
               b(2) = (  1.0000  1.0000  1.0000 )  
               b(3) = ( -1.0000  1.0000 -1.0000 )  


     Atoms inside the unit cell: 

   Cartesian axes

     site n.  atom      mass           positions (alat units)
        1        Si  28.0860   tau( 1) = (    0.00000    0.00000    0.00000  )
        2        Si  28.0860   tau( 2) = (    0.25000    0.25000    0.25000  )

     Computing dynamical matrix for 
                    q = (   0.0000000   0.0000000   0.0000000 )
 
     49 Sym.Ops. (with q -> -q+G )


     G cutoff =  189.7462  (    683 G-vectors)     FFT grid: ( 20, 20, 20)
     number of k points=    29

     PseudoPot. # 1 for Si read from file:
     /home/ywg/QuantumEspresso/pseudo/Si.pz-vbc.UPF
     MD5 check sum: 6dfa03ddd5817404712e03e4d12deb78
     Pseudo is Norm-conserving, Zval =  4.0
     Generated by new atomic code, or converted to UPF format
     Using radial grid of  431 points,  2 beta functions with: 
                l(1) =   0
                l(2) =   1


     Electric field:
     Dielectric constant
     Born effective charges in two ways 


     Atomic displacements:
     There are   2 irreducible representations

     Representation     1      3 modes -T_2g G_25' G_5+ To be done

     Representation     2      3 modes -T_1u G_15  G_4- To be done



     Alpha used in Ewald sum =   0.7000
     PHONON       :     0.67s CPU         0.96s WALL


     Electric Fields Calculation

      iter #   1 total cpu time :     2.4 secs   av.it.:   5.6
      thresh= 0.100E-01 alpha_mix =  0.700 |ddv_scf|^2 =  0.898E-06

      iter #   2 total cpu time :     3.0 secs   av.it.:   9.1
      thresh= 0.947E-04 alpha_mix =  0.700 |ddv_scf|^2 =  0.340E-07

      iter #   3 total cpu time :     3.6 secs   av.it.:   9.0
      thresh= 0.184E-04 alpha_mix =  0.700 |ddv_scf|^2 =  0.357E-09

      iter #   4 total cpu time :     4.2 secs   av.it.:   9.1
      thresh= 0.189E-05 alpha_mix =  0.700 |ddv_scf|^2 =  0.153E-11

      iter #   5 total cpu time :     5.2 secs   av.it.:   8.8
      thresh= 0.124E-06 alpha_mix =  0.700 |ddv_scf|^2 =  0.194E-14

     End of electric fields calculation

          Dielectric constant in cartesian axis 

          (      14.011738001       0.000000000       0.000000000 )
          (       0.000000000      14.011738001       0.000000000 )
          (       0.000000000       0.000000000      14.011738001 )

          Effective charges (d Force / dE) in cartesian axis

           atom      1   Si 
      Ex  (       -0.09112        0.00000        0.00000 )
      Ey  (        0.00000       -0.09112        0.00000 )
      Ez  (        0.00000        0.00000       -0.09112 )
           atom      2   Si 
      Ex  (       -0.09112        0.00000        0.00000 )
      Ey  (        0.00000       -0.09112        0.00000 )
      Ez  (        0.00000        0.00000       -0.09112 )


     Representation #  1 modes #   1  2  3

     Self-consistent Calculation

      iter #   1 total cpu time :     5.8 secs   av.it.:   4.9
      thresh= 0.100E-01 alpha_mix =  0.700 |ddv_scf|^2 =  0.189E-06

      iter #   2 total cpu time :     6.4 secs   av.it.:   9.2
      thresh= 0.435E-04 alpha_mix =  0.700 |ddv_scf|^2 =  0.328E-08

      iter #   3 total cpu time :     7.1 secs   av.it.:   9.2
      thresh= 0.573E-05 alpha_mix =  0.700 |ddv_scf|^2 =  0.333E-10

      iter #   4 total cpu time :     7.7 secs   av.it.:   8.7
      thresh= 0.577E-06 alpha_mix =  0.700 |ddv_scf|^2 =  0.300E-13

     End of self-consistent calculation

     Convergence has been achieved 


     Representation #  2 modes #   4  5  6

     Self-consistent Calculation

      iter #   1 total cpu time :     8.1 secs   av.it.:   5.0
      thresh= 0.100E-01 alpha_mix =  0.700 |ddv_scf|^2 =  0.133E-06

      iter #   2 total cpu time :     8.8 secs   av.it.:   9.4
      thresh= 0.365E-04 alpha_mix =  0.700 |ddv_scf|^2 =  0.479E-08

      iter #   3 total cpu time :     9.4 secs   av.it.:   9.2
      thresh= 0.692E-05 alpha_mix =  0.700 |ddv_scf|^2 =  0.440E-10

      iter #   4 total cpu time :    10.4 secs   av.it.:   9.1
      thresh= 0.664E-06 alpha_mix =  0.700 |ddv_scf|^2 =  0.943E-13

     End of self-consistent calculation

     Convergence has been achieved 
 
     Number of q in the star =    1
     List of q in the star:
          1   0.000000000   0.000000000   0.000000000

          Dielectric constant in cartesian axis 

          (      14.011738001       0.000000000       0.000000000 )
          (       0.000000000      14.011738001       0.000000000 )
          (       0.000000000       0.000000000      14.011738001 )

          Effective charges (d Force / dE) in cartesian axis

           atom      1   Si 
      Ex  (       -0.09112        0.00000        0.00000 )
      Ey  (        0.00000       -0.09112        0.00000 )
      Ez  (        0.00000        0.00000       -0.09112 )
           atom      2   Si 
      Ex  (       -0.09112        0.00000        0.00000 )
      Ey  (        0.00000       -0.09112        0.00000 )
      Ez  (        0.00000        0.00000       -0.09112 )

          Effective charges (d P / du) in cartesian axis 

           atom      1   Si 
      Px  (       -0.08929        0.00000        0.00000 )
      Py  (        0.00000       -0.08929        0.00000 )
      Pz  (        0.00000        0.00000       -0.08929 )
           atom      2   Si 
      Px  (       -0.08929        0.00000        0.00000 )
      Py  (        0.00000       -0.08929        0.00000 )
      Pz  (        0.00000        0.00000       -0.08929 )

     Diagonalizing the dynamical matrix

     q = (    0.000000000   0.000000000   0.000000000 ) 

 **************************************************************************
     omega( 1) =       0.477502 [THz] =      15.927763 [cm-1]
     omega( 2) =       0.477502 [THz] =      15.927763 [cm-1]
     omega( 3) =       0.477502 [THz] =      15.927763 [cm-1]
     omega( 4) =      15.310331 [THz] =     510.697657 [cm-1]
     omega( 5) =      15.310331 [THz] =     510.697657 [cm-1]
     omega( 6) =      15.310331 [THz] =     510.697657 [cm-1]
 **************************************************************************

     Calculation of q =   -0.1250000   0.1250000  -0.1250000
 
     Parallelization info
     --------------------
     sticks:   dense  smooth     PW     G-vecs:    dense   smooth      PW
     Min          63      63     22                  682      682     152
     Max          64      64     23                  686      686     153
     Sum         253     253     91                 2733     2733     609
 


     bravais-lattice index     =            2
     lattice parameter (alat)  =      10.2000  a.u.
     unit-cell volume          =     265.3020 (a.u.)^3
     number of atoms/cell      =            2
     number of atomic types    =            1
     number of electrons       =         8.00
     number of Kohn-Sham states=            4
     kinetic-energy cutoff     =      18.0000  Ry
     charge density cutoff     =      72.0000  Ry
     Exchange-correlation      =  SLA  PZ   NOGX NOGC ( 1 1 0 0 0)
     EXX-fraction              =        0.00

     celldm(1)=  10.200000  celldm(2)=   0.000000  celldm(3)=   0.000000
     celldm(4)=   0.000000  celldm(5)=   0.000000  celldm(6)=   0.000000

     crystal axes: (cart. coord. in units of alat)
               a(1) = (  -0.500000   0.000000   0.500000 )  
               a(2) = (   0.000000   0.500000   0.500000 )  
               a(3) = (  -0.500000   0.500000   0.000000 )  

     reciprocal axes: (cart. coord. in units 2 pi/alat)
               b(1) = ( -1.000000 -1.000000  1.000000 )  
               b(2) = (  1.000000  1.000000  1.000000 )  
               b(3) = ( -1.000000  1.000000 -1.000000 )  


     PseudoPot. # 1 for Si read from file:
     /home/ywg/QuantumEspresso/pseudo/Si.pz-vbc.UPF
     MD5 check sum: 6dfa03ddd5817404712e03e4d12deb78
     Pseudo is Norm-conserving, Zval =  4.0
     Generated by new atomic code, or converted to UPF format
     Using radial grid of  431 points,  2 beta functions with: 
                l(1) =   0
                l(2) =   1

     atomic species   valence    mass     pseudopotential
        Si             4.00    28.08600     Si( 1.00)

     48 Sym. Ops., with inversion, found



   Cartesian axes

     site n.     atom                  positions (alat units)
         1           Si  tau(   1) = (   0.0000000   0.0000000   0.0000000  )
         2           Si  tau(   2) = (   0.2500000   0.2500000   0.2500000  )

     number of k points=   240

     Number of k-points >= 100: set verbosity='high' to print them.

     Dense  grid:     2733 G-vectors     FFT dimensions: (  20,  20,  20)

     Largest allocated arrays     est. size (Mb)     dimensions
        Kohn-Sham Wavefunctions         0.01 Mb     (     99,    4)
        NL pseudopotentials             0.01 Mb     (     99,    8)
        Each V/rho on FFT grid          0.03 Mb     (   2000)
        Each G-vector array             0.01 Mb     (    683)
        G-vector shells                 0.00 Mb     (     64)
     Largest temporary arrays     est. size (Mb)     dimensions
        Auxiliary wavefunctions         0.02 Mb     (     99,   16)
        Each subspace H/S matrix        0.00 Mb     (  16,  16)
        Each <psi_i|beta_j> matrix      0.00 Mb     (      8,    4)

     The potential is recalculated from file :
     /home/ywg/tmp/Si/_ph0/si.save/charge-density.dat

     Starting wfc are    8 atomic wfcs

     total cpu time spent up to now is        0.0 secs

     per-process dynamical memory:     1.3 Mb

     Band Structure Calculation
     Davidson diagonalization with overlap

     ethr =  1.25E-10,  avg # of iterations = 11.1

     total cpu time spent up to now is        2.4 secs

     End of band structure calculation

          k = 0.0000 0.0000 0.0000     band energies (ev):

    -5.8094   6.2556   6.2556   6.2556

          k =-0.1250 0.1250-0.1250     band energies (ev):

    -5.6034   4.6474   5.9575   5.9575

          k =-0.1250 0.1250-0.1250     band energies (ev):

    -5.6034   4.6474   5.9575   5.9575

          k =-0.2500 0.2500-0.2500     band energies (ev):

    -4.9976   2.2885   5.4762   5.4762

          k =-0.2500 0.2500-0.2500     band energies (ev):

    -4.9976   2.2885   5.4762   5.4762

          k =-0.3750 0.3750-0.3750     band energies (ev):

    -4.0844   0.2309   5.1438   5.1438

          k =-0.3750 0.3750-0.3750     band energies (ev):

    -4.0844   0.2309   5.1438   5.1438

          k =-0.5000 0.5000-0.5000     band energies (ev):

    -3.4174  -0.8216   5.0296   5.0296

          k = 0.5000-0.5000 0.5000     band energies (ev):

    -3.4174  -0.8216   5.0296   5.0296

          k = 0.3750-0.3750 0.3750     band energies (ev):

    -4.0844   0.2309   5.1438   5.1438

          k = 0.0000 0.2500 0.0000     band energies (ev):

    -5.5336   4.9431   5.4248   5.4248

          k =-0.1250 0.3750-0.1250     band energies (ev):

    -5.0579   3.0181   4.9018   4.9916

          k =-0.1250 0.3750-0.1250     band energies (ev):

    -5.0579   3.0181   4.9018   4.9916

          k =-0.2500 0.5000-0.2500     band energies (ev):

    -4.2258   0.9183   4.3898   4.6292

          k =-0.2500 0.5000-0.2500     band energies (ev):

    -4.2258   0.9183   4.3898   4.6292

          k =-0.3750 0.6250-0.3750     band energies (ev):

    -3.3341  -0.5838   3.9346   4.6562

          k = 0.6250-0.3750 0.6250     band energies (ev):

    -3.3341  -0.5838   3.9346   4.6562

          k = 0.5000-0.2500 0.5000     band energies (ev):

    -3.5889  -0.2002   3.7454   4.9613

          k = 0.5000-0.2500 0.5000     band energies (ev):

    -3.5889  -0.2002   3.7454   4.9613

          k = 0.3750-0.1250 0.3750     band energies (ev):

    -4.5390   1.5915   3.8910   5.4643

          k = 0.3750-0.1250 0.3750     band energies (ev):

    -4.5390   1.5915   3.8910   5.4643

          k = 0.2500 0.0000 0.2500     band energies (ev):

    -5.2616   3.5663   4.5786   5.9574

          k = 0.2500 0.0000 0.2500     band energies (ev):

    -5.2616   3.5663   4.5786   5.9574

          k = 0.1250 0.1250 0.1250     band energies (ev):

    -5.6034   4.6474   5.9575   5.9575

          k = 0.0000 0.5000 0.0000     band energies (ev):

    -4.7123   2.7570   4.3166   4.3166

          k =-0.1250 0.6250-0.1250     band energies (ev):

    -3.9877   1.3113   3.5170   3.9925

          k =-0.1250 0.6250-0.1250     band energies (ev):

    -3.9877   1.3113   3.5170   3.9925

          k =-0.2500 0.7500-0.2500     band energies (ev):

    -3.0382  -0.1686   2.6343   3.9963

          k = 0.7500-0.2500 0.7500     band energies (ev):

    -3.0382  -0.1686   2.6343   3.9963

          k = 0.6250-0.1250 0.6250     band energies (ev):

    -2.8214  -0.4385   2.1618   4.3236

          k = 0.6250-0.1250 0.6250     band energies (ev):

    -2.8214  -0.4385   2.1618   4.3236

          k = 0.5000 0.0000 0.5000     band energies (ev):

    -3.7271   0.7546   2.3991   4.8970

          k = 0.5000 0.0000 0.5000     band energies (ev):

    -3.7271   0.7546   2.3991   4.8970

          k = 0.3750 0.1250 0.3750     band energies (ev):

    -4.5390   1.5915   3.8910   5.4643

          k = 0.0000 0.7500 0.0000     band energies (ev):

    -3.3745   0.5074   3.5853   3.5853

          k =-0.1250 0.8750-0.1250     band energies (ev):

    -2.4610  -0.5930   2.7231   3.5074

          k = 0.8750-0.1250 0.8750     band energies (ev):

    -2.4610  -0.5930   2.7231   3.5074

          k = 0.7500 0.0000 0.7500     band energies (ev):

    -1.9996  -1.0047   1.8242   3.7711

          k = 0.7500 0.0000 0.7500     band energies (ev):

    -1.9996  -1.0047   1.8242   3.7711

          k = 0.6250 0.1250 0.6250     band energies (ev):

    -2.8214  -0.4385   2.1618   4.3236

          k = 0.0000-1.0000 0.0000     band energies (ev):

    -1.5972  -1.5972   3.3339   3.3339

          k =-0.1250-0.8750-0.1250     band energies (ev):

    -2.4610  -0.5930   2.7231   3.5074

          k =-0.2500 0.5000 0.0000     band energies (ev):

    -4.4589   1.9606   3.4672   4.7947

          k =-0.3750 0.6250-0.1250     band energies (ev):

    -3.5485   0.3756   2.8570   4.2751

          k = 0.6250-0.3750 0.8750     band energies (ev):

    -3.5485   0.3756   2.8570   4.2751

          k = 0.5000-0.2500 0.7500     band energies (ev):

    -2.8717  -0.6031   2.7321   4.0364

          k = 0.5000-0.2500 0.7500     band energies (ev):

    -2.8717  -0.6031   2.7321   4.0364

          k = 0.3750-0.1250 0.6250     band energies (ev):

    -3.5485   0.3756   2.8570   4.2751

          k = 0.7500-0.2500 1.0000     band energies (ev):

    -3.1710   0.2852   2.8019   3.4182

          k = 0.6250-0.1250 0.8750     band energies (ev):

    -2.2713  -0.7027   2.0787   3.2111

          k = 0.6250-0.1250 0.8750     band energies (ev):

    -2.2713  -0.7027   2.0787   3.2111

          k = 0.5000 0.0000 0.7500     band energies (ev):

    -2.6286  -0.3358   1.9058   3.5993

          k = 0.5000 0.0000 0.7500     band energies (ev):

    -2.6286  -0.3358   1.9058   3.5993

          k = 0.3750 0.1250 0.6250     band energies (ev):

    -3.5485   0.3756   2.8570   4.2751

          k =-0.2500-1.0000 0.0000     band energies (ev):

    -1.5120  -1.5120   2.7425   2.7425

          k =-0.3750-0.8750-0.1250     band energies (ev):

    -2.2713  -0.7027   2.0787   3.2111

          k =-0.5000-1.0000 0.0000     band energies (ev):

    -1.4205  -1.4205   2.2859   2.2859

          k =-0.6250-0.8750-0.1250     band energies (ev):

    -2.2713  -0.7027   2.0787   3.2111

          k = 0.1250-0.1250-0.1250     band energies (ev):

    -5.6034   4.6474   5.9575   5.9575

          k = 0.0000 0.0000-0.2500     band energies (ev):

    -5.5336   4.9431   5.4248   5.4248

          k = 0.1250-0.1250 0.1250     band energies (ev):

    -5.6034   4.6474   5.9575   5.9575

          k = 0.0000 0.0000 0.0000     band energies (ev):

    -5.8094   6.2556   6.2556   6.2556

          k =-0.1250 0.1250 0.1250     band energies (ev):

    -5.6034   4.6474   5.9575   5.9575

          k =-0.2500 0.2500 0.0000     band energies (ev):

    -5.2616   3.5663   4.5786   5.9574

          k = 0.2500-0.2500-0.2500     band energies (ev):

    -4.9976   2.2885   5.4762   5.4762

          k = 0.1250-0.1250-0.3750     band energies (ev):

    -5.0579   3.0181   4.9018   4.9916

          k = 0.2500-0.2500 0.2500     band energies (ev):

    -4.9976   2.2885   5.4762   5.4762

          k = 0.1250-0.1250 0.1250     band energies (ev):

    -5.6034   4.6474   5.9575   5.9575

          k =-0.2500 0.2500 0.2500     band energies (ev):

    -4.9976   2.2885   5.4762   5.4762

          k =-0.3750 0.3750 0.1250     band energies (ev):

    -4.5390   1.5915   3.8910   5.4643

          k = 0.3750-0.3750-0.3750     band energies (ev):

    -4.0844   0.2309   5.1438   5.1438

          k = 0.2500-0.2500-0.5000     band energies (ev):

    -4.2258   0.9183   4.3898   4.6292

          k = 0.3750-0.3750 0.3750     band energies (ev):

    -4.0844   0.2309   5.1438   5.1438

          k = 0.2500-0.2500 0.2500     band energies (ev):

    -4.9976   2.2885   5.4762   5.4762

          k =-0.3750 0.3750 0.3750     band energies (ev):

    -4.0844   0.2309   5.1438   5.1438

          k =-0.5000 0.5000 0.2500     band energies (ev):

    -3.5889  -0.2002   3.7454   4.9613

          k =-0.5000 0.5000 0.5000     band energies (ev):

    -3.4174  -0.8216   5.0296   5.0296

          k =-0.6250 0.6250 0.3750     band energies (ev):

    -3.3341  -0.5838   3.9346   4.6562

          k = 0.0000 0.0000 0.2500     band energies (ev):

    -5.5336   4.9431   5.4248   5.4248

          k =-0.1250 0.1250 0.1250     band energies (ev):

    -5.6034   4.6474   5.9575   5.9575

          k = 0.1250-0.1250-0.3750     band energies (ev):

    -5.0579   3.0181   4.9018   4.9916

          k = 0.0000 0.0000-0.5000     band energies (ev):

    -4.7123   2.7570   4.3166   4.3166

          k = 0.1250-0.1250 0.3750     band energies (ev):

    -5.0579   3.0181   4.9018   4.9916

          k = 0.0000 0.0000 0.2500     band energies (ev):

    -5.5336   4.9431   5.4248   5.4248

          k = 0.1250-0.3750-0.1250     band energies (ev):

    -5.0579   3.0181   4.9018   4.9916

          k = 0.0000-0.2500-0.2500     band energies (ev):

    -5.2616   3.5663   4.5786   5.9574

          k =-0.1250 0.3750 0.1250     band energies (ev):

    -5.0579   3.0181   4.9018   4.9916

          k =-0.2500 0.5000 0.0000     band energies (ev):

    -4.4589   1.9606   3.4672   4.7947

          k =-0.1250-0.3750-0.1250     band energies (ev):

    -5.0579   3.0181   4.9018   4.9916

          k =-0.2500-0.2500-0.2500     band energies (ev):

    -4.9976   2.2885   5.4762   5.4762

          k = 0.2500-0.2500-0.5000     band energies (ev):

    -4.2258   0.9183   4.3898   4.6292

          k = 0.1250-0.1250-0.6250     band energies (ev):

    -3.9877   1.3113   3.5170   3.9925

          k = 0.2500-0.2500 0.5000     band energies (ev):

    -4.2258   0.9183   4.3898   4.6292

          k = 0.1250-0.1250 0.3750     band energies (ev):

    -5.0579   3.0181   4.9018   4.9916

          k = 0.2500-0.5000-0.2500     band energies (ev):

    -4.2258   0.9183   4.3898   4.6292

          k = 0.1250-0.3750-0.3750     band energies (ev):

    -4.5390   1.5915   3.8910   5.4643

          k =-0.2500 0.5000 0.2500     band energies (ev):

    -4.2258   0.9183   4.3898   4.6292

          k =-0.3750 0.6250 0.1250     band energies (ev):

    -3.5485   0.3756   2.8570   4.2751

          k =-0.2500-0.5000-0.2500     band energies (ev):

    -4.2258   0.9183   4.3898   4.6292

          k =-0.3750-0.3750-0.3750     band energies (ev):

    -4.0844   0.2309   5.1438   5.1438

          k =-0.6250 0.6250 0.3750     band energies (ev):

    -3.3341  -0.5838   3.9346   4.6562

          k =-0.7500 0.7500 0.2500     band energies (ev):

    -3.0382  -0.1686   2.6343   3.9963

          k =-0.6250 0.6250-0.3750     band energies (ev):

    -3.3341  -0.5838   3.9346   4.6562

          k =-0.7500 0.7500-0.5000     band energies (ev):

    -4.2258   0.9183   4.3898   4.6292

          k =-0.6250 0.3750 0.6250     band energies (ev):

    -3.3341  -0.5838   3.9346   4.6562

          k =-0.7500 0.5000 0.5000     band energies (ev):

    -3.5889  -0.2002   3.7454   4.9613

          k = 0.6250-0.3750-0.6250     band energies (ev):

    -3.3341  -0.5838   3.9346   4.6562

          k = 0.5000-0.2500-0.7500     band energies (ev):

    -2.8717  -0.6031   2.7321   4.0364

          k = 0.6250 0.3750 0.6250     band energies (ev):

    -3.3341  -0.5838   3.9346   4.6562

          k = 0.5000 0.5000 0.5000     band energies (ev):

    -3.4174  -0.8216   5.0296   5.0296

          k =-0.5000 0.5000 0.2500     band energies (ev):

    -3.5889  -0.2002   3.7454   4.9613

          k =-0.6250 0.6250 0.1250     band energies (ev):

    -2.8214  -0.4385   2.1618   4.3236

          k =-0.5000 0.5000-0.2500     band energies (ev):

    -3.5889  -0.2002   3.7454   4.9613

          k =-0.6250 0.6250-0.3750     band energies (ev):

    -3.3341  -0.5838   3.9346   4.6562

          k =-0.5000 0.2500 0.5000     band energies (ev):

    -3.5889  -0.2002   3.7454   4.9613

          k =-0.6250 0.3750 0.3750     band energies (ev):

    -3.3341  -0.5838   3.9346   4.6562

          k = 0.5000-0.2500-0.5000     band energies (ev):

    -3.5889  -0.2002   3.7454   4.9613

          k = 0.3750-0.1250-0.6250     band energies (ev):

    -3.5485   0.3756   2.8570   4.2751

          k = 0.5000 0.2500 0.5000     band energies (ev):

    -3.5889  -0.2002   3.7454   4.9613

          k = 0.3750 0.3750 0.3750     band energies (ev):

    -4.0844   0.2309   5.1438   5.1438

          k =-0.3750 0.3750 0.1250     band energies (ev):

    -4.5390   1.5915   3.8910   5.4643

          k =-0.5000 0.5000 0.0000     band energies (ev):

    -3.7271   0.7546   2.3991   4.8970

          k =-0.3750 0.3750-0.1250     band energies (ev):

    -4.5390   1.5915   3.8910   5.4643

          k =-0.5000 0.5000-0.2500     band energies (ev):

    -3.5889  -0.2002   3.7454   4.9613

          k =-0.3750 0.1250 0.3750     band energies (ev):

    -4.5390   1.5915   3.8910   5.4643

          k =-0.5000 0.2500 0.2500     band energies (ev):

    -4.2258   0.9183   4.3898   4.6292

          k = 0.3750-0.1250-0.3750     band energies (ev):

    -4.5390   1.5915   3.8910   5.4643

          k = 0.2500 0.0000-0.5000     band energies (ev):

    -4.4589   1.9606   3.4672   4.7947

          k = 0.3750 0.1250 0.3750     band energies (ev):

    -4.5390   1.5915   3.8910   5.4643

          k = 0.2500 0.2500 0.2500     band energies (ev):

    -4.9976   2.2885   5.4762   5.4762

          k =-0.2500 0.2500 0.0000     band energies (ev):

    -5.2616   3.5663   4.5786   5.9574

          k =-0.3750 0.3750-0.1250     band energies (ev):

    -4.5390   1.5915   3.8910   5.4643

          k =-0.2500 0.0000 0.2500     band energies (ev):

    -5.2616   3.5663   4.5786   5.9574

          k =-0.3750 0.1250 0.1250     band energies (ev):

    -5.0579   3.0181   4.9018   4.9916

          k = 0.0000 0.0000 0.5000     band energies (ev):

    -4.7123   2.7570   4.3166   4.3166

          k =-0.1250 0.1250 0.3750     band energies (ev):

    -5.0579   3.0181   4.9018   4.9916

          k = 0.1250-0.1250-0.6250     band energies (ev):

    -3.9877   1.3113   3.5170   3.9925

          k = 0.0000 0.0000-0.7500     band energies (ev):

    -3.3745   0.5074   3.5853   3.5853

          k = 0.1250-0.1250 0.6250     band energies (ev):

    -3.9877   1.3113   3.5170   3.9925

          k = 0.0000 0.0000 0.5000     band energies (ev):

    -4.7123   2.7570   4.3166   4.3166

          k = 0.1250-0.6250-0.1250     band energies (ev):

    -3.9877   1.3113   3.5170   3.9925

          k = 0.0000-0.5000-0.2500     band energies (ev):

    -4.4589   1.9606   3.4672   4.7947

          k =-0.1250 0.6250 0.1250     band energies (ev):

    -3.9877   1.3113   3.5170   3.9925

          k =-0.2500 0.7500 0.0000     band energies (ev):

    -3.1710   0.2852   2.8019   3.4182

          k =-0.1250-0.6250-0.1250     band energies (ev):

    -3.9877   1.3113   3.5170   3.9925

          k =-0.2500-0.5000-0.2500     band energies (ev):

    -4.2258   0.9183   4.3898   4.6292

          k =-0.7500 0.7500 0.2500     band energies (ev):

    -3.0382  -0.1686   2.6343   3.9963

          k =-0.8750 0.8750 0.1250     band energies (ev):

    -2.4610  -0.5930   2.7231   3.5074

          k =-0.7500 0.7500-0.2500     band energies (ev):

    -3.0382  -0.1686   2.6343   3.9963

          k =-0.8750 0.8750-0.3750     band energies (ev):

    -3.9877   1.3113   3.5170   3.9925

          k =-0.7500 0.2500 0.7500     band energies (ev):

    -3.0382  -0.1686   2.6343   3.9963

          k =-0.8750 0.3750 0.6250     band energies (ev):

    -3.5485   0.3756   2.8570   4.2751

          k = 0.7500-0.2500-0.7500     band energies (ev):

    -3.0382  -0.1686   2.6343   3.9963

          k = 0.6250-0.1250-0.8750     band energies (ev):

    -2.2713  -0.7027   2.0787   3.2111

          k = 0.7500 0.2500 0.7500     band energies (ev):

    -3.0382  -0.1686   2.6343   3.9963

          k = 0.6250 0.3750 0.6250     band energies (ev):

    -3.3341  -0.5838   3.9346   4.6562

          k =-0.6250 0.6250 0.1250     band energies (ev):

    -2.8214  -0.4385   2.1618   4.3236

          k =-0.7500 0.7500 0.0000     band energies (ev):

    -1.9996  -1.0047   1.8242   3.7711

          k =-0.6250 0.6250-0.1250     band energies (ev):

    -2.8214  -0.4385   2.1618   4.3236

          k =-0.7500 0.7500-0.2500     band energies (ev):

    -3.0382  -0.1686   2.6343   3.9963

          k =-0.6250 0.1250 0.6250     band energies (ev):

    -2.8214  -0.4385   2.1618   4.3236

          k =-0.7500 0.2500 0.5000     band energies (ev):

    -2.8717  -0.6031   2.7321   4.0364

          k = 0.6250-0.1250-0.6250     band energies (ev):

    -2.8214  -0.4385   2.1618   4.3236

          k = 0.5000 0.0000-0.7500     band energies (ev):

    -2.6286  -0.3358   1.9058   3.5993

          k = 0.6250 0.1250 0.6250     band energies (ev):

    -2.8214  -0.4385   2.1618   4.3236

          k = 0.5000 0.2500 0.5000     band energies (ev):

    -3.5889  -0.2002   3.7454   4.9613

          k =-0.5000 0.5000 0.0000     band energies (ev):

    -3.7271   0.7546   2.3991   4.8970

          k =-0.6250 0.6250-0.1250     band energies (ev):

    -2.8214  -0.4385   2.1618   4.3236

          k =-0.5000 0.0000 0.5000     band energies (ev):

    -3.7271   0.7546   2.3991   4.8970

          k =-0.6250 0.1250 0.3750     band energies (ev):

    -3.5485   0.3756   2.8570   4.2751

          k = 0.0000 0.0000 0.7500     band energies (ev):

    -3.3745   0.5074   3.5853   3.5853

          k =-0.1250 0.1250 0.6250     band energies (ev):

    -3.9877   1.3113   3.5170   3.9925

          k =-0.8750 0.8750 0.1250     band energies (ev):

    -2.4610  -0.5930   2.7231   3.5074

          k =-1.0000 1.0000 0.0000     band energies (ev):

    -1.5972  -1.5972   3.3339   3.3339

          k =-0.8750 0.8750-0.1250     band energies (ev):

    -2.4610  -0.5930   2.7231   3.5074

          k =-1.0000 1.0000-0.2500     band energies (ev):

    -3.3745   0.5074   3.5853   3.5853

          k =-0.8750 0.1250 0.8750     band energies (ev):

    -2.4610  -0.5930   2.7231   3.5074

          k =-1.0000 0.2500 0.7500     band energies (ev):

    -3.1710   0.2852   2.8019   3.4182

          k = 0.8750-0.1250-0.8750     band energies (ev):

    -2.4610  -0.5930   2.7231   3.5074

          k = 0.7500 0.0000-1.0000     band energies (ev):

    -1.5120  -1.5120   2.7425   2.7425

          k = 0.8750 0.1250 0.8750     band energies (ev):

    -2.4610  -0.5930   2.7231   3.5074

          k = 0.7500 0.2500 0.7500     band energies (ev):

    -3.0382  -0.1686   2.6343   3.9963

          k =-0.7500 0.7500 0.0000     band energies (ev):

    -1.9996  -1.0047   1.8242   3.7711

          k =-0.8750 0.8750-0.1250     band energies (ev):

    -2.4610  -0.5930   2.7231   3.5074

          k =-0.7500 0.0000 0.7500     band energies (ev):

    -1.9996  -1.0047   1.8242   3.7711

          k =-0.8750 0.1250 0.6250     band energies (ev):

    -2.2713  -0.7027   2.0787   3.2111

          k = 0.2500 0.0000-0.5000     band energies (ev):

    -4.4589   1.9606   3.4672   4.7947

          k = 0.1250 0.1250-0.6250     band energies (ev):

    -3.9877   1.3113   3.5170   3.9925

          k = 0.2500 0.0000 0.5000     band energies (ev):

    -4.4589   1.9606   3.4672   4.7947

          k = 0.1250 0.1250 0.3750     band energies (ev):

    -5.0579   3.0181   4.9018   4.9916

          k = 0.0000-0.5000-0.2500     band energies (ev):

    -4.4589   1.9606   3.4672   4.7947

          k =-0.1250-0.3750-0.3750     band energies (ev):

    -4.5390   1.5915   3.8910   5.4643

          k =-0.6250 0.8750 0.3750     band energies (ev):

    -3.5485   0.3756   2.8570   4.2751

          k =-0.7500 1.0000 0.2500     band energies (ev):

    -3.1710   0.2852   2.8019   3.4182

          k =-0.6250 0.8750-0.3750     band energies (ev):

    -3.5485   0.3756   2.8570   4.2751

          k =-0.7500 1.0000-0.5000     band energies (ev):

    -4.4589   1.9606   3.4672   4.7947

          k =-0.6250 0.3750 0.8750     band energies (ev):

    -3.5485   0.3756   2.8570   4.2751

          k =-0.7500 0.5000 0.7500     band energies (ev):

    -4.2258   0.9183   4.3898   4.6292

          k = 0.8750-0.3750-0.6250     band energies (ev):

    -3.5485   0.3756   2.8570   4.2751

          k = 0.7500-0.2500-0.7500     band energies (ev):

    -3.0382  -0.1686   2.6343   3.9963

          k =-0.8750-0.3750 0.6250     band energies (ev):

    -3.5485   0.3756   2.8570   4.2751

          k =-1.0000-0.2500 0.5000     band energies (ev):

    -2.6286  -0.3358   1.9058   3.5993

          k = 0.8750 0.3750 0.6250     band energies (ev):

    -3.5485   0.3756   2.8570   4.2751

          k = 0.7500 0.5000 0.5000     band energies (ev):

    -3.5889  -0.2002   3.7454   4.9613

          k =-0.8750 0.3750 0.6250     band energies (ev):

    -3.5485   0.3756   2.8570   4.2751

          k =-1.0000 0.5000 0.5000     band energies (ev):

    -3.7271   0.7546   2.3991   4.8970

          k =-0.5000 0.7500 0.2500     band energies (ev):

    -2.8717  -0.6031   2.7321   4.0364

          k =-0.6250 0.8750 0.1250     band energies (ev):

    -2.2713  -0.7027   2.0787   3.2111

          k =-0.5000 0.2500 0.7500     band energies (ev):

    -2.8717  -0.6031   2.7321   4.0364

          k =-0.6250 0.3750 0.6250     band energies (ev):

    -3.3341  -0.5838   3.9346   4.6562

          k = 0.7500-0.2500-0.5000     band energies (ev):

    -2.8717  -0.6031   2.7321   4.0364

          k = 0.6250-0.1250-0.6250     band energies (ev):

    -2.8214  -0.4385   2.1618   4.3236

          k =-0.7500 1.0000 0.2500     band energies (ev):

    -3.1710   0.2852   2.8019   3.4182

          k =-0.8750 1.1250 0.1250     band energies (ev):

    -2.4610  -0.5930   2.7231   3.5074

          k =-0.7500 1.0000-0.2500     band energies (ev):

    -3.1710   0.2852   2.8019   3.4182

          k =-0.8750 1.1250-0.3750     band energies (ev):

    -3.9877   1.3113   3.5170   3.9925

          k = 1.0000 0.2500 0.7500     band energies (ev):

    -3.1710   0.2852   2.8019   3.4182

          k = 0.8750 0.3750 0.6250     band energies (ev):

    -3.5485   0.3756   2.8570   4.2751

          k =-0.6250 0.8750 0.1250     band energies (ev):

    -2.2713  -0.7027   2.0787   3.2111

          k =-0.7500 1.0000 0.0000     band energies (ev):

    -1.5120  -1.5120   2.7425   2.7425

          k =-0.6250 0.8750-0.1250     band energies (ev):

    -2.2713  -0.7027   2.0787   3.2111

          k =-0.7500 1.0000-0.2500     band energies (ev):

    -3.1710   0.2852   2.8019   3.4182

          k =-0.6250 0.1250 0.8750     band energies (ev):

    -2.2713  -0.7027   2.0787   3.2111

          k =-0.7500 0.2500 0.7500     band energies (ev):

    -3.0382  -0.1686   2.6343   3.9963

          k = 0.8750-0.1250-0.6250     band energies (ev):

    -2.2713  -0.7027   2.0787   3.2111

          k = 0.7500 0.0000-0.7500     band energies (ev):

    -1.9996  -1.0047   1.8242   3.7711

          k =-0.8750-0.1250 0.6250     band energies (ev):

    -2.2713  -0.7027   2.0787   3.2111

          k =-1.0000 0.0000 0.5000     band energies (ev):

    -1.4205  -1.4205   2.2859   2.2859

          k = 0.8750 0.1250 0.6250     band energies (ev):

    -2.2713  -0.7027   2.0787   3.2111

          k = 0.7500 0.2500 0.5000     band energies (ev):

    -2.8717  -0.6031   2.7321   4.0364

          k =-0.8750 0.1250 0.6250     band energies (ev):

    -2.2713  -0.7027   2.0787   3.2111

          k =-1.0000 0.2500 0.5000     band energies (ev):

    -2.6286  -0.3358   1.9058   3.5993

          k =-0.5000 0.7500 0.0000     band energies (ev):

    -2.6286  -0.3358   1.9058   3.5993

          k =-0.6250 0.8750-0.1250     band energies (ev):

    -2.2713  -0.7027   2.0787   3.2111

          k =-0.5000 0.0000 0.7500     band energies (ev):

    -2.6286  -0.3358   1.9058   3.5993

          k =-0.6250 0.1250 0.6250     band energies (ev):

    -2.8214  -0.4385   2.1618   4.3236

          k =-0.7500 0.0000 0.5000     band energies (ev):

    -2.6286  -0.3358   1.9058   3.5993

          k =-0.8750 0.1250 0.3750     band energies (ev):

    -2.2713  -0.7027   2.0787   3.2111

          k = 0.2500 0.0000 1.0000     band energies (ev):

    -1.5120  -1.5120   2.7425   2.7425

          k = 0.1250 0.1250 0.8750     band energies (ev):

    -2.4610  -0.5930   2.7231   3.5074

     Writing output data file si.save

                                                                                

     bravais-lattice index     =            2
     lattice parameter (alat)  =      10.2000  a.u.
     unit-cell volume          =     265.3020 (a.u.)^3
     number of atoms/cell      =            2
     number of atomic types    =            1
     kinetic-energy cut-off    =      18.0000  Ry
     charge density cut-off    =      72.0000  Ry
     convergence threshold     =      1.0E-12
     beta                      =       0.7000
     number of iterations used =            4
     Exchange-correlation      =  SLA  PZ   NOGX NOGC ( 1 1 0 0 0)
     EXX-fraction              =        0.00


     celldm(1)=   10.20000  celldm(2)=    0.00000  celldm(3)=    0.00000
     celldm(4)=    0.00000  celldm(5)=    0.00000  celldm(6)=    0.00000

     crystal axes: (cart. coord. in units of alat)
               a(1) = ( -0.5000  0.0000  0.5000 )  
               a(2) = (  0.0000  0.5000  0.5000 )  
               a(3) = ( -0.5000  0.5000  0.0000 )  

     reciprocal axes: (cart. coord. in units 2 pi/alat)
               b(1) = ( -1.0000 -1.0000  1.0000 )  
               b(2) = (  1.0000  1.0000  1.0000 )  
               b(3) = ( -1.0000  1.0000 -1.0000 )  


     Atoms inside the unit cell: 

   Cartesian axes

     site n.  atom      mass           positions (alat units)
        1        Si  28.0860   tau( 1) = (    0.00000    0.00000    0.00000  )
        2        Si  28.0860   tau( 2) = (    0.25000    0.25000    0.25000  )

     Computing dynamical matrix for 
                    q = (  -0.1250000   0.1250000  -0.1250000 )
 
      6 Sym.Ops. (no q -> -q+G )


     G cutoff =  189.7462  (    683 G-vectors)     FFT grid: ( 20, 20, 20)
     number of k points=   240

     PseudoPot. # 1 for Si read from file:
     /home/ywg/QuantumEspresso/pseudo/Si.pz-vbc.UPF
     MD5 check sum: 6dfa03ddd5817404712e03e4d12deb78
     Pseudo is Norm-conserving, Zval =  4.0
     Generated by new atomic code, or converted to UPF format
     Using radial grid of  431 points,  2 beta functions with: 
                l(1) =   0
                l(2) =   1


     Atomic displacements:
     There are   4 irreducible representations

     Representation     1      1 modes -A_1  L_1 To be done

     Representation     2      1 modes -A_1  L_1 To be done

     Representation     3      2 modes -E    L_3 To be done

     Representation     4      2 modes -E    L_3 To be done



     Alpha used in Ewald sum =   0.7000
     PHONON       :    11.41s CPU        13.25s WALL



     Representation #  1 mode #   1

     Self-consistent Calculation

      iter #   1 total cpu time :    13.9 secs   av.it.:   5.7
      thresh= 0.100E-01 alpha_mix =  0.700 |ddv_scf|^2 =  0.283E-01

      iter #   2 total cpu time :    14.5 secs   av.it.:   7.0
      thresh= 0.100E-01 alpha_mix =  0.700 |ddv_scf|^2 =  0.120E+01

      iter #   3 total cpu time :    15.9 secs   av.it.:   6.7
      thresh= 0.100E-01 alpha_mix =  0.700 |ddv_scf|^2 =  0.517E-05

      iter #   4 total cpu time :    16.6 secs   av.it.:   6.7
      thresh= 0.227E-03 alpha_mix =  0.700 |ddv_scf|^2 =  0.296E-06

      iter #   5 total cpu time :    17.2 secs   av.it.:   6.8
      thresh= 0.544E-04 alpha_mix =  0.700 |ddv_scf|^2 =  0.106E-06

      iter #   6 total cpu time :    17.7 secs   av.it.:   4.8
      thresh= 0.325E-04 alpha_mix =  0.700 |ddv_scf|^2 =  0.212E-08

      iter #   7 total cpu time :    18.4 secs   av.it.:   6.7
      thresh= 0.460E-05 alpha_mix =  0.700 |ddv_scf|^2 =  0.287E-09

      iter #   8 total cpu time :    19.0 secs   av.it.:   6.2
      thresh= 0.169E-05 alpha_mix =  0.700 |ddv_scf|^2 =  0.805E-11

      iter #   9 total cpu time :    19.6 secs   av.it.:   5.9
      thresh= 0.284E-06 alpha_mix =  0.700 |ddv_scf|^2 =  0.198E-12

     End of self-consistent calculation

     Convergence has been achieved 


     Representation #  2 mode #   2

     Self-consistent Calculation

      iter #   1 total cpu time :    20.2 secs   av.it.:   5.7
      thresh= 0.100E-01 alpha_mix =  0.700 |ddv_scf|^2 =  0.283E-01

      iter #   2 total cpu time :    20.9 secs   av.it.:   7.0
      thresh= 0.100E-01 alpha_mix =  0.700 |ddv_scf|^2 =  0.120E+01

      iter #   3 total cpu time :    21.5 secs   av.it.:   6.7
      thresh= 0.100E-01 alpha_mix =  0.700 |ddv_scf|^2 =  0.517E-05

      iter #   4 total cpu time :    22.1 secs   av.it.:   6.7
      thresh= 0.227E-03 alpha_mix =  0.700 |ddv_scf|^2 =  0.298E-06

      iter #   5 total cpu time :    22.8 secs   av.it.:   6.7
      thresh= 0.546E-04 alpha_mix =  0.700 |ddv_scf|^2 =  0.452E-09

      iter #   6 total cpu time :    23.5 secs   av.it.:   7.5
      thresh= 0.213E-05 alpha_mix =  0.700 |ddv_scf|^2 =  0.722E-09

      iter #   7 total cpu time :    24.0 secs   av.it.:   5.0
      thresh= 0.269E-05 alpha_mix =  0.700 |ddv_scf|^2 =  0.286E-09

      iter #   8 total cpu time :    24.6 secs   av.it.:   6.3
      thresh= 0.169E-05 alpha_mix =  0.700 |ddv_scf|^2 =  0.762E-11

      iter #   9 total cpu time :    25.2 secs   av.it.:   5.9
      thresh= 0.276E-06 alpha_mix =  0.700 |ddv_scf|^2 =  0.176E-12

     End of self-consistent calculation

     Convergence has been achieved 


     Representation #  3 modes #   3  4

     Self-consistent Calculation

      iter #   1 total cpu time :    26.4 secs   av.it.:   5.1
      thresh= 0.100E-01 alpha_mix =  0.700 |ddv_scf|^2 =  0.409E-06

      iter #   2 total cpu time :    28.1 secs   av.it.:   9.4
      thresh= 0.639E-04 alpha_mix =  0.700 |ddv_scf|^2 =  0.141E-07

      iter #   3 total cpu time :    29.7 secs   av.it.:   9.3
      thresh= 0.119E-04 alpha_mix =  0.700 |ddv_scf|^2 =  0.111E-09

      iter #   4 total cpu time :    31.4 secs   av.it.:   9.0
      thresh= 0.105E-05 alpha_mix =  0.700 |ddv_scf|^2 =  0.669E-11

      iter #   5 total cpu time :    33.0 secs   av.it.:   9.0
      thresh= 0.259E-06 alpha_mix =  0.700 |ddv_scf|^2 =  0.129E-13

     End of self-consistent calculation

     Convergence has been achieved 


     Representation #  4 modes #   5  6

     Self-consistent Calculation

      iter #   1 total cpu time :    34.2 secs   av.it.:   5.1
      thresh= 0.100E-01 alpha_mix =  0.700 |ddv_scf|^2 =  0.409E-06

      iter #   2 total cpu time :    35.9 secs   av.it.:   9.5
      thresh= 0.639E-04 alpha_mix =  0.700 |ddv_scf|^2 =  0.141E-07

      iter #   3 total cpu time :    37.5 secs   av.it.:   9.4
      thresh= 0.119E-04 alpha_mix =  0.700 |ddv_scf|^2 =  0.111E-09

      iter #   4 total cpu time :    39.2 secs   av.it.:   9.1
      thresh= 0.105E-05 alpha_mix =  0.700 |ddv_scf|^2 =  0.668E-11

      iter #   5 total cpu time :    40.8 secs   av.it.:   9.1
      thresh= 0.259E-06 alpha_mix =  0.700 |ddv_scf|^2 =  0.129E-13

     End of self-consistent calculation

     Convergence has been achieved 
 
     Number of q in the star =    8
     List of q in the star:
          1  -0.125000000   0.125000000  -0.125000000
          2   0.125000000  -0.125000000  -0.125000000
          3   0.125000000  -0.125000000   0.125000000
          4  -0.125000000   0.125000000   0.125000000
          5   0.125000000   0.125000000  -0.125000000
          6  -0.125000000  -0.125000000  -0.125000000
          7  -0.125000000  -0.125000000   0.125000000
          8   0.125000000   0.125000000   0.125000000

     Diagonalizing the dynamical matrix

     q = (   -0.125000000   0.125000000  -0.125000000 ) 

 **************************************************************************
     omega( 1) =       1.809634 [THz] =      60.362893 [cm-1]
     omega( 2) =       1.809634 [THz] =      60.362893 [cm-1]
     omega( 3) =       3.604658 [THz] =     120.238454 [cm-1]
     omega( 4) =      15.083447 [THz] =     503.129634 [cm-1]
     omega( 5) =      15.083447 [THz] =     503.129634 [cm-1]
     omega( 6) =      15.111160 [THz] =     504.054029 [cm-1]
 **************************************************************************

     Calculation of q =   -0.2500000   0.2500000  -0.2500000
 
     Parallelization info
     --------------------
     sticks:   dense  smooth     PW     G-vecs:    dense   smooth      PW
     Min          63      63     24                  682      682     161
     Max          64      64     25                  686      686     162
     Sum         253     253     97                 2733     2733     645
 


     bravais-lattice index     =            2
     lattice parameter (alat)  =      10.2000  a.u.
     unit-cell volume          =     265.3020 (a.u.)^3
     number of atoms/cell      =            2
     number of atomic types    =            1
     number of electrons       =         8.00
     number of Kohn-Sham states=            4
     kinetic-energy cutoff     =      18.0000  Ry
     charge density cutoff     =      72.0000  Ry
     Exchange-correlation      =  SLA  PZ   NOGX NOGC ( 1 1 0 0 0)
     EXX-fraction              =        0.00

     celldm(1)=  10.200000  celldm(2)=   0.000000  celldm(3)=   0.000000
     celldm(4)=   0.000000  celldm(5)=   0.000000  celldm(6)=   0.000000

     crystal axes: (cart. coord. in units of alat)
               a(1) = (  -0.500000   0.000000   0.500000 )  
               a(2) = (   0.000000   0.500000   0.500000 )  
               a(3) = (  -0.500000   0.500000   0.000000 )  

     reciprocal axes: (cart. coord. in units 2 pi/alat)
               b(1) = ( -1.000000 -1.000000  1.000000 )  
               b(2) = (  1.000000  1.000000  1.000000 )  
               b(3) = ( -1.000000  1.000000 -1.000000 )  


     PseudoPot. # 1 for Si read from file:
     /home/ywg/QuantumEspresso/pseudo/Si.pz-vbc.UPF
     MD5 check sum: 6dfa03ddd5817404712e03e4d12deb78
     Pseudo is Norm-conserving, Zval =  4.0
     Generated by new atomic code, or converted to UPF format
     Using radial grid of  431 points,  2 beta functions with: 
                l(1) =   0
                l(2) =   1

     atomic species   valence    mass     pseudopotential
        Si             4.00    28.08600     Si( 1.00)

     48 Sym. Ops., with inversion, found



   Cartesian axes

     site n.     atom                  positions (alat units)
         1           Si  tau(   1) = (   0.0000000   0.0000000   0.0000000  )
         2           Si  tau(   2) = (   0.2500000   0.2500000   0.2500000  )

     number of k points=   240

     Number of k-points >= 100: set verbosity='high' to print them.

     Dense  grid:     2733 G-vectors     FFT dimensions: (  20,  20,  20)

     Largest allocated arrays     est. size (Mb)     dimensions
        Kohn-Sham Wavefunctions         0.01 Mb     (     91,    4)
        NL pseudopotentials             0.01 Mb     (     91,    8)
        Each V/rho on FFT grid          0.03 Mb     (   2000)
        Each G-vector array             0.01 Mb     (    683)
        G-vector shells                 0.00 Mb     (     64)
     Largest temporary arrays     est. size (Mb)     dimensions
        Auxiliary wavefunctions         0.02 Mb     (     91,   16)
        Each subspace H/S matrix        0.00 Mb     (  16,  16)
        Each <psi_i|beta_j> matrix      0.00 Mb     (      8,    4)

     The potential is recalculated from file :
     /home/ywg/tmp/Si/_ph0/si.save/charge-density.dat

     Starting wfc are    8 atomic wfcs

     total cpu time spent up to now is        2.7 secs

     per-process dynamical memory:     1.8 Mb

     Band Structure Calculation
     Davidson diagonalization with overlap

     ethr =  1.25E-10,  avg # of iterations = 11.1

     total cpu time spent up to now is        4.9 secs

     End of band structure calculation

          k = 0.0000 0.0000 0.0000 (   331 PWs)   bands (ev):

    -5.8094   6.2556   6.2556   6.2556

          k =-0.2500 0.2500-0.2500 (   344 PWs)   bands (ev):

    -4.9976   2.2885   5.4762   5.4762

          k =-0.1250 0.1250-0.1250 (   335 PWs)   bands (ev):

    -5.6034   4.6474   5.9575   5.9575

          k =-0.3750 0.3750-0.3750 (   350 PWs)   bands (ev):

    -4.0844   0.2309   5.1438   5.1438

          k =-0.2500 0.2500-0.2500 (   344 PWs)   bands (ev):

    -4.9976   2.2885   5.4762   5.4762

          k =-0.5000 0.5000-0.5000 (   344 PWs)   bands (ev):

    -3.4174  -0.8216   5.0296   5.0296

          k =-0.3750 0.3750-0.3750 (   350 PWs)   bands (ev):

    -4.0844   0.2309   5.1438   5.1438

          k =-0.6250 0.6250-0.6250 (   350 PWs)   bands (ev):

    -4.0844   0.2309   5.1438   5.1438

          k = 0.5000-0.5000 0.5000 (   344 PWs)   bands (ev):

    -3.4174  -0.8216   5.0296   5.0296

          k = 0.2500-0.2500 0.2500 (   344 PWs)   bands (ev):

    -4.9976   2.2885   5.4762   5.4762

          k = 0.0000 0.2500 0.0000 (   335 PWs)   bands (ev):

    -5.5336   4.9431   5.4248   5.4248

          k =-0.2500 0.5000-0.2500 (   343 PWs)   bands (ev):

    -4.2258   0.9183   4.3898   4.6292

          k =-0.1250 0.3750-0.1250 (   338 PWs)   bands (ev):

    -5.0579   3.0181   4.9018   4.9916

          k =-0.3750 0.6250-0.3750 (   343 PWs)   bands (ev):

    -3.3341  -0.5838   3.9346   4.6562

          k =-0.2500 0.5000-0.2500 (   343 PWs)   bands (ev):

    -4.2258   0.9183   4.3898   4.6292

          k =-0.5000 0.7500-0.5000 (   340 PWs)   bands (ev):

    -3.5889  -0.2002   3.7454   4.9613

          k = 0.6250-0.3750 0.6250 (   343 PWs)   bands (ev):

    -3.3341  -0.5838   3.9346   4.6562

          k = 0.3750-0.1250 0.3750 (   341 PWs)   bands (ev):

    -4.5390   1.5915   3.8910   5.4643

          k = 0.5000-0.2500 0.5000 (   340 PWs)   bands (ev):

    -3.5889  -0.2002   3.7454   4.9613

          k = 0.2500 0.0000 0.2500 (   337 PWs)   bands (ev):

    -5.2616   3.5663   4.5786   5.9574

          k = 0.3750-0.1250 0.3750 (   341 PWs)   bands (ev):

    -4.5390   1.5915   3.8910   5.4643

          k = 0.1250 0.1250 0.1250 (   335 PWs)   bands (ev):

    -5.6034   4.6474   5.9575   5.9575

          k = 0.2500 0.0000 0.2500 (   337 PWs)   bands (ev):

    -5.2616   3.5663   4.5786   5.9574

          k = 0.0000 0.2500 0.0000 (   335 PWs)   bands (ev):

    -5.5336   4.9431   5.4248   5.4248

          k = 0.0000 0.5000 0.0000 (   343 PWs)   bands (ev):

    -4.7123   2.7570   4.3166   4.3166

          k =-0.2500 0.7500-0.2500 (   346 PWs)   bands (ev):

    -3.0382  -0.1686   2.6343   3.9963

          k =-0.1250 0.6250-0.1250 (   337 PWs)   bands (ev):

    -3.9877   1.3113   3.5170   3.9925

          k =-0.3750 0.8750-0.3750 (   344 PWs)   bands (ev):

    -2.8214  -0.4385   2.1618   4.3236

          k = 0.7500-0.2500 0.7500 (   346 PWs)   bands (ev):

    -3.0382  -0.1686   2.6343   3.9963

          k = 0.5000 0.0000 0.5000 (   339 PWs)   bands (ev):

    -3.7271   0.7546   2.3991   4.8970

          k = 0.6250-0.1250 0.6250 (   344 PWs)   bands (ev):

    -2.8214  -0.4385   2.1618   4.3236

          k = 0.3750 0.1250 0.3750 (   341 PWs)   bands (ev):

    -4.5390   1.5915   3.8910   5.4643

          k = 0.5000 0.0000 0.5000 (   339 PWs)   bands (ev):

    -3.7271   0.7546   2.3991   4.8970

          k = 0.2500 0.2500 0.2500 (   344 PWs)   bands (ev):

    -4.9976   2.2885   5.4762   5.4762

          k = 0.0000 0.7500 0.0000 (   327 PWs)   bands (ev):

    -3.3745   0.5074   3.5853   3.5853

          k =-0.2500 1.0000-0.2500 (   347 PWs)   bands (ev):

    -1.9996  -1.0047   1.8242   3.7711

          k = 0.8750-0.1250 0.8750 (   343 PWs)   bands (ev):

    -2.4610  -0.5930   2.7231   3.5074

          k = 0.6250 0.1250 0.6250 (   344 PWs)   bands (ev):

    -2.8214  -0.4385   2.1618   4.3236

          k = 0.7500 0.0000 0.7500 (   347 PWs)   bands (ev):

    -1.9996  -1.0047   1.8242   3.7711

          k = 0.5000 0.2500 0.5000 (   340 PWs)   bands (ev):

    -3.5889  -0.2002   3.7454   4.9613

          k = 0.0000-1.0000 0.0000 (   342 PWs)   bands (ev):

    -1.5972  -1.5972   3.3339   3.3339

          k =-0.2500-0.7500-0.2500 (   346 PWs)   bands (ev):

    -3.0382  -0.1686   2.6343   3.9963

          k =-0.2500 0.5000 0.0000 (   339 PWs)   bands (ev):

    -4.4589   1.9606   3.4672   4.7947

          k =-0.5000 0.7500-0.2500 (   346 PWs)   bands (ev):

    -2.8717  -0.6031   2.7321   4.0364

          k = 0.6250-0.3750 0.8750 (   340 PWs)   bands (ev):

    -3.5485   0.3756   2.8570   4.2751

          k = 0.3750-0.1250 0.6250 (   340 PWs)   bands (ev):

    -3.5485   0.3756   2.8570   4.2751

          k = 0.5000-0.2500 0.7500 (   346 PWs)   bands (ev):

    -2.8717  -0.6031   2.7321   4.0364

          k = 0.2500 0.0000 0.5000 (   339 PWs)   bands (ev):

    -4.4589   1.9606   3.4672   4.7947

          k = 0.7500-0.2500 1.0000 (   340 PWs)   bands (ev):

    -3.1710   0.2852   2.8019   3.4182

          k = 0.5000 0.0000 0.7500 (   346 PWs)   bands (ev):

    -2.6286  -0.3358   1.9058   3.5993

          k = 0.6250-0.1250 0.8750 (   347 PWs)   bands (ev):

    -2.2713  -0.7027   2.0787   3.2111

          k = 0.3750 0.1250 0.6250 (   340 PWs)   bands (ev):

    -3.5485   0.3756   2.8570   4.2751

          k = 0.5000 0.0000 0.7500 (   346 PWs)   bands (ev):

    -2.6286  -0.3358   1.9058   3.5993

          k = 0.2500 0.2500 0.5000 (   343 PWs)   bands (ev):

    -4.2258   0.9183   4.3898   4.6292

          k =-0.2500-1.0000 0.0000 (   342 PWs)   bands (ev):

    -1.5120  -1.5120   2.7425   2.7425

          k =-0.5000-0.7500-0.2500 (   346 PWs)   bands (ev):

    -2.8717  -0.6031   2.7321   4.0364

          k =-0.5000-1.0000 0.0000 (   360 PWs)   bands (ev):

    -1.4205  -1.4205   2.2859   2.2859

          k =-0.7500-0.7500-0.2500 (   346 PWs)   bands (ev):

    -3.0382  -0.1686   2.6343   3.9963

          k = 0.1250-0.1250-0.1250 (   335 PWs)   bands (ev):

    -5.6034   4.6474   5.9575   5.9575

          k =-0.1250 0.1250-0.3750 (   338 PWs)   bands (ev):

    -5.0579   3.0181   4.9018   4.9916

          k = 0.1250-0.1250 0.1250 (   335 PWs)   bands (ev):

    -5.6034   4.6474   5.9575   5.9575

          k =-0.1250 0.1250-0.1250 (   335 PWs)   bands (ev):

    -5.6034   4.6474   5.9575   5.9575

          k =-0.1250 0.1250 0.1250 (   335 PWs)   bands (ev):

    -5.6034   4.6474   5.9575   5.9575

          k =-0.3750 0.3750-0.1250 (   341 PWs)   bands (ev):

    -4.5390   1.5915   3.8910   5.4643

          k = 0.2500-0.2500-0.2500 (   344 PWs)   bands (ev):

    -4.9976   2.2885   5.4762   5.4762

          k = 0.0000 0.0000-0.5000 (   343 PWs)   bands (ev):

    -4.7123   2.7570   4.3166   4.3166

          k = 0.2500-0.2500 0.2500 (   344 PWs)   bands (ev):

    -4.9976   2.2885   5.4762   5.4762

          k = 0.0000 0.0000 0.0000 (   331 PWs)   bands (ev):

    -5.8094   6.2556   6.2556   6.2556

          k =-0.2500 0.2500 0.2500 (   344 PWs)   bands (ev):

    -4.9976   2.2885   5.4762   5.4762

          k =-0.5000 0.5000 0.0000 (   339 PWs)   bands (ev):

    -3.7271   0.7546   2.3991   4.8970

          k = 0.3750-0.3750-0.3750 (   350 PWs)   bands (ev):

    -4.0844   0.2309   5.1438   5.1438

          k = 0.1250-0.1250-0.6250 (   337 PWs)   bands (ev):

    -3.9877   1.3113   3.5170   3.9925

          k = 0.3750-0.3750 0.3750 (   350 PWs)   bands (ev):

    -4.0844   0.2309   5.1438   5.1438

          k = 0.1250-0.1250 0.1250 (   335 PWs)   bands (ev):

    -5.6034   4.6474   5.9575   5.9575

          k =-0.3750 0.3750 0.3750 (   350 PWs)   bands (ev):

    -4.0844   0.2309   5.1438   5.1438

          k =-0.6250 0.6250 0.1250 (   344 PWs)   bands (ev):

    -2.8214  -0.4385   2.1618   4.3236

          k =-0.5000 0.5000 0.5000 (   344 PWs)   bands (ev):

    -3.4174  -0.8216   5.0296   5.0296

          k =-0.7500 0.7500 0.2500 (   346 PWs)   bands (ev):

    -3.0382  -0.1686   2.6343   3.9963

          k = 0.0000 0.0000 0.2500 (   335 PWs)   bands (ev):

    -5.5336   4.9431   5.4248   5.4248

          k =-0.2500 0.2500 0.0000 (   337 PWs)   bands (ev):

    -5.2616   3.5663   4.5786   5.9574

          k = 0.1250-0.1250-0.3750 (   338 PWs)   bands (ev):

    -5.0579   3.0181   4.9018   4.9916

          k =-0.1250 0.1250-0.6250 (   337 PWs)   bands (ev):

    -3.9877   1.3113   3.5170   3.9925

          k = 0.1250-0.1250 0.3750 (   338 PWs)   bands (ev):

    -5.0579   3.0181   4.9018   4.9916

          k =-0.1250 0.1250 0.1250 (   335 PWs)   bands (ev):

    -5.6034   4.6474   5.9575   5.9575

          k = 0.1250-0.3750-0.1250 (   338 PWs)   bands (ev):

    -5.0579   3.0181   4.9018   4.9916

          k =-0.1250-0.1250-0.3750 (   338 PWs)   bands (ev):

    -5.0579   3.0181   4.9018   4.9916

          k =-0.1250 0.3750 0.1250 (   338 PWs)   bands (ev):

    -5.0579   3.0181   4.9018   4.9916

          k =-0.3750 0.6250-0.1250 (   340 PWs)   bands (ev):

    -3.5485   0.3756   2.8570   4.2751

          k =-0.1250-0.3750-0.1250 (   338 PWs)   bands (ev):

    -5.0579   3.0181   4.9018   4.9916

          k =-0.3750-0.1250-0.3750 (   341 PWs)   bands (ev):

    -4.5390   1.5915   3.8910   5.4643

          k = 0.2500-0.2500-0.5000 (   343 PWs)   bands (ev):

    -4.2258   0.9183   4.3898   4.6292

          k = 0.0000 0.0000-0.7500 (   327 PWs)   bands (ev):

    -3.3745   0.5074   3.5853   3.5853

          k = 0.2500-0.2500 0.5000 (   343 PWs)   bands (ev):

    -4.2258   0.9183   4.3898   4.6292

          k = 0.0000 0.0000 0.2500 (   335 PWs)   bands (ev):

    -5.5336   4.9431   5.4248   5.4248

          k = 0.2500-0.5000-0.2500 (   343 PWs)   bands (ev):

    -4.2258   0.9183   4.3898   4.6292

          k = 0.0000-0.2500-0.5000 (   339 PWs)   bands (ev):

    -4.4589   1.9606   3.4672   4.7947

          k =-0.2500 0.5000 0.2500 (   343 PWs)   bands (ev):

    -4.2258   0.9183   4.3898   4.6292

          k =-0.5000 0.7500 0.0000 (   346 PWs)   bands (ev):

    -2.6286  -0.3358   1.9058   3.5993

          k =-0.2500-0.5000-0.2500 (   343 PWs)   bands (ev):

    -4.2258   0.9183   4.3898   4.6292

          k =-0.5000-0.2500-0.5000 (   340 PWs)   bands (ev):

    -3.5889  -0.2002   3.7454   4.9613

          k =-0.6250 0.6250 0.3750 (   343 PWs)   bands (ev):

    -3.3341  -0.5838   3.9346   4.6562

          k =-0.8750 0.8750 0.1250 (   343 PWs)   bands (ev):

    -2.4610  -0.5930   2.7231   3.5074

          k =-0.6250 0.6250-0.3750 (   343 PWs)   bands (ev):

    -3.3341  -0.5838   3.9346   4.6562

          k =-0.8750 0.8750-0.6250 (   338 PWs)   bands (ev):

    -5.0579   3.0181   4.9018   4.9916

          k =-0.6250 0.3750 0.6250 (   343 PWs)   bands (ev):

    -3.3341  -0.5838   3.9346   4.6562

          k =-0.8750 0.6250 0.3750 (   340 PWs)   bands (ev):

    -3.5485   0.3756   2.8570   4.2751

          k = 0.6250-0.3750-0.6250 (   343 PWs)   bands (ev):

    -3.3341  -0.5838   3.9346   4.6562

          k = 0.3750-0.1250-0.8750 (   347 PWs)   bands (ev):

    -2.2713  -0.7027   2.0787   3.2111

          k = 0.6250 0.3750 0.6250 (   343 PWs)   bands (ev):

    -3.3341  -0.5838   3.9346   4.6562

          k = 0.3750 0.6250 0.3750 (   343 PWs)   bands (ev):

    -3.3341  -0.5838   3.9346   4.6562

          k =-0.5000 0.5000 0.2500 (   340 PWs)   bands (ev):

    -3.5889  -0.2002   3.7454   4.9613

          k =-0.7500 0.7500 0.0000 (   347 PWs)   bands (ev):

    -1.9996  -1.0047   1.8242   3.7711

          k =-0.5000 0.5000-0.2500 (   340 PWs)   bands (ev):

    -3.5889  -0.2002   3.7454   4.9613

          k =-0.7500 0.7500-0.5000 (   343 PWs)   bands (ev):

    -4.2258   0.9183   4.3898   4.6292

          k =-0.5000 0.2500 0.5000 (   340 PWs)   bands (ev):

    -3.5889  -0.2002   3.7454   4.9613

          k =-0.7500 0.5000 0.2500 (   346 PWs)   bands (ev):

    -2.8717  -0.6031   2.7321   4.0364

          k = 0.5000-0.2500-0.5000 (   340 PWs)   bands (ev):

    -3.5889  -0.2002   3.7454   4.9613

          k = 0.2500 0.0000-0.7500 (   340 PWs)   bands (ev):

    -3.1710   0.2852   2.8019   3.4182

          k = 0.5000 0.2500 0.5000 (   340 PWs)   bands (ev):

    -3.5889  -0.2002   3.7454   4.9613

          k = 0.2500 0.5000 0.2500 (   343 PWs)   bands (ev):

    -4.2258   0.9183   4.3898   4.6292

          k =-0.3750 0.3750 0.1250 (   341 PWs)   bands (ev):

    -4.5390   1.5915   3.8910   5.4643

          k =-0.6250 0.6250-0.1250 (   344 PWs)   bands (ev):

    -2.8214  -0.4385   2.1618   4.3236

          k =-0.3750 0.3750-0.1250 (   341 PWs)   bands (ev):

    -4.5390   1.5915   3.8910   5.4643

          k =-0.6250 0.6250-0.3750 (   343 PWs)   bands (ev):

    -3.3341  -0.5838   3.9346   4.6562

          k =-0.3750 0.1250 0.3750 (   341 PWs)   bands (ev):

    -4.5390   1.5915   3.8910   5.4643

          k =-0.6250 0.3750 0.1250 (   340 PWs)   bands (ev):

    -3.5485   0.3756   2.8570   4.2751

          k = 0.3750-0.1250-0.3750 (   341 PWs)   bands (ev):

    -4.5390   1.5915   3.8910   5.4643

          k = 0.1250 0.1250-0.6250 (   337 PWs)   bands (ev):

    -3.9877   1.3113   3.5170   3.9925

          k = 0.3750 0.1250 0.3750 (   341 PWs)   bands (ev):

    -4.5390   1.5915   3.8910   5.4643

          k = 0.1250 0.3750 0.1250 (   338 PWs)   bands (ev):

    -5.0579   3.0181   4.9018   4.9916

          k =-0.2500 0.2500 0.0000 (   337 PWs)   bands (ev):

    -5.2616   3.5663   4.5786   5.9574

          k =-0.5000 0.5000-0.2500 (   340 PWs)   bands (ev):

    -3.5889  -0.2002   3.7454   4.9613

          k =-0.2500 0.0000 0.2500 (   337 PWs)   bands (ev):

    -5.2616   3.5663   4.5786   5.9574

          k =-0.5000 0.2500 0.0000 (   339 PWs)   bands (ev):

    -4.4589   1.9606   3.4672   4.7947

          k = 0.0000 0.0000 0.5000 (   343 PWs)   bands (ev):

    -4.7123   2.7570   4.3166   4.3166

          k =-0.2500 0.2500 0.2500 (   344 PWs)   bands (ev):

    -4.9976   2.2885   5.4762   5.4762

          k = 0.1250-0.1250-0.6250 (   337 PWs)   bands (ev):

    -3.9877   1.3113   3.5170   3.9925

          k =-0.1250 0.1250-0.8750 (   343 PWs)   bands (ev):

    -2.4610  -0.5930   2.7231   3.5074

          k = 0.1250-0.1250 0.6250 (   337 PWs)   bands (ev):

    -3.9877   1.3113   3.5170   3.9925

          k =-0.1250 0.1250 0.3750 (   338 PWs)   bands (ev):

    -5.0579   3.0181   4.9018   4.9916

          k = 0.1250-0.6250-0.1250 (   337 PWs)   bands (ev):

    -3.9877   1.3113   3.5170   3.9925

          k =-0.1250-0.3750-0.3750 (   341 PWs)   bands (ev):

    -4.5390   1.5915   3.8910   5.4643

          k =-0.1250 0.6250 0.1250 (   337 PWs)   bands (ev):

    -3.9877   1.3113   3.5170   3.9925

          k =-0.3750 0.8750-0.1250 (   347 PWs)   bands (ev):

    -2.2713  -0.7027   2.0787   3.2111

          k =-0.1250-0.6250-0.1250 (   337 PWs)   bands (ev):

    -3.9877   1.3113   3.5170   3.9925

          k =-0.3750-0.3750-0.3750 (   350 PWs)   bands (ev):

    -4.0844   0.2309   5.1438   5.1438

          k =-0.7500 0.7500 0.2500 (   346 PWs)   bands (ev):

    -3.0382  -0.1686   2.6343   3.9963

          k =-1.0000 1.0000 0.0000 (   342 PWs)   bands (ev):

    -1.5972  -1.5972   3.3339   3.3339

          k =-0.7500 0.7500-0.2500 (   346 PWs)   bands (ev):

    -3.0382  -0.1686   2.6343   3.9963

          k =-1.0000 1.0000-0.5000 (   343 PWs)   bands (ev):

    -4.7123   2.7570   4.3166   4.3166

          k =-0.7500 0.2500 0.7500 (   346 PWs)   bands (ev):

    -3.0382  -0.1686   2.6343   3.9963

          k =-1.0000 0.5000 0.5000 (   339 PWs)   bands (ev):

    -3.7271   0.7546   2.3991   4.8970

          k = 0.7500-0.2500-0.7500 (   346 PWs)   bands (ev):

    -3.0382  -0.1686   2.6343   3.9963

          k = 0.5000 0.0000-1.0000 (   360 PWs)   bands (ev):

    -1.4205  -1.4205   2.2859   2.2859

          k = 0.7500 0.2500 0.7500 (   346 PWs)   bands (ev):

    -3.0382  -0.1686   2.6343   3.9963

          k = 0.5000 0.5000 0.5000 (   344 PWs)   bands (ev):

    -3.4174  -0.8216   5.0296   5.0296

          k =-0.6250 0.6250 0.1250 (   344 PWs)   bands (ev):

    -2.8214  -0.4385   2.1618   4.3236

          k =-0.8750 0.8750-0.1250 (   343 PWs)   bands (ev):

    -2.4610  -0.5930   2.7231   3.5074

          k =-0.6250 0.6250-0.1250 (   344 PWs)   bands (ev):

    -2.8214  -0.4385   2.1618   4.3236

          k =-0.8750 0.8750-0.3750 (   337 PWs)   bands (ev):

    -3.9877   1.3113   3.5170   3.9925

          k =-0.6250 0.1250 0.6250 (   344 PWs)   bands (ev):

    -2.8214  -0.4385   2.1618   4.3236

          k =-0.8750 0.3750 0.3750 (   344 PWs)   bands (ev):

    -2.8214  -0.4385   2.1618   4.3236

          k = 0.6250-0.1250-0.6250 (   344 PWs)   bands (ev):

    -2.8214  -0.4385   2.1618   4.3236

          k = 0.3750 0.1250-0.8750 (   347 PWs)   bands (ev):

    -2.2713  -0.7027   2.0787   3.2111

          k = 0.6250 0.1250 0.6250 (   344 PWs)   bands (ev):

    -2.8214  -0.4385   2.1618   4.3236

          k = 0.3750 0.3750 0.3750 (   350 PWs)   bands (ev):

    -4.0844   0.2309   5.1438   5.1438

          k =-0.5000 0.5000 0.0000 (   339 PWs)   bands (ev):

    -3.7271   0.7546   2.3991   4.8970

          k =-0.7500 0.7500-0.2500 (   346 PWs)   bands (ev):

    -3.0382  -0.1686   2.6343   3.9963

          k =-0.5000 0.0000 0.5000 (   339 PWs)   bands (ev):

    -3.7271   0.7546   2.3991   4.8970

          k =-0.7500 0.2500 0.2500 (   346 PWs)   bands (ev):

    -3.0382  -0.1686   2.6343   3.9963

          k = 0.0000 0.0000 0.7500 (   327 PWs)   bands (ev):

    -3.3745   0.5074   3.5853   3.5853

          k =-0.2500 0.2500 0.5000 (   343 PWs)   bands (ev):

    -4.2258   0.9183   4.3898   4.6292

          k =-0.8750 0.8750 0.1250 (   343 PWs)   bands (ev):

    -2.4610  -0.5930   2.7231   3.5074

          k =-1.1250 1.1250-0.1250 (   343 PWs)   bands (ev):

    -2.4610  -0.5930   2.7231   3.5074

          k =-0.8750 0.8750-0.1250 (   343 PWs)   bands (ev):

    -2.4610  -0.5930   2.7231   3.5074

          k =-1.1250 1.1250-0.3750 (   337 PWs)   bands (ev):

    -3.9877   1.3113   3.5170   3.9925

          k =-0.8750 0.1250 0.8750 (   343 PWs)   bands (ev):

    -2.4610  -0.5930   2.7231   3.5074

          k =-1.1250 0.3750 0.6250 (   340 PWs)   bands (ev):

    -3.5485   0.3756   2.8570   4.2751

          k = 0.8750-0.1250-0.8750 (   343 PWs)   bands (ev):

    -2.4610  -0.5930   2.7231   3.5074

          k = 0.6250 0.1250-1.1250 (   347 PWs)   bands (ev):

    -2.2713  -0.7027   2.0787   3.2111

          k = 0.8750 0.1250 0.8750 (   343 PWs)   bands (ev):

    -2.4610  -0.5930   2.7231   3.5074

          k = 0.6250 0.3750 0.6250 (   343 PWs)   bands (ev):

    -3.3341  -0.5838   3.9346   4.6562

          k =-0.7500 0.7500 0.0000 (   347 PWs)   bands (ev):

    -1.9996  -1.0047   1.8242   3.7711

          k =-1.0000 1.0000-0.2500 (   327 PWs)   bands (ev):

    -3.3745   0.5074   3.5853   3.5853

          k =-0.7500 0.0000 0.7500 (   347 PWs)   bands (ev):

    -1.9996  -1.0047   1.8242   3.7711

          k =-1.0000 0.2500 0.5000 (   346 PWs)   bands (ev):

    -2.6286  -0.3358   1.9058   3.5993

          k = 0.2500 0.0000-0.5000 (   339 PWs)   bands (ev):

    -4.4589   1.9606   3.4672   4.7947

          k = 0.0000 0.2500-0.7500 (   340 PWs)   bands (ev):

    -3.1710   0.2852   2.8019   3.4182

          k = 0.2500 0.0000 0.5000 (   339 PWs)   bands (ev):

    -4.4589   1.9606   3.4672   4.7947

          k = 0.0000 0.2500 0.2500 (   337 PWs)   bands (ev):

    -5.2616   3.5663   4.5786   5.9574

          k = 0.0000-0.5000-0.2500 (   339 PWs)   bands (ev):

    -4.4589   1.9606   3.4672   4.7947

          k =-0.2500-0.2500-0.5000 (   343 PWs)   bands (ev):

    -4.2258   0.9183   4.3898   4.6292

          k =-0.6250 0.8750 0.3750 (   340 PWs)   bands (ev):

    -3.5485   0.3756   2.8570   4.2751

          k =-0.8750 1.1250 0.1250 (   343 PWs)   bands (ev):

    -2.4610  -0.5930   2.7231   3.5074

          k =-0.6250 0.8750-0.3750 (   340 PWs)   bands (ev):

    -3.5485   0.3756   2.8570   4.2751

          k =-0.8750 1.1250-0.6250 (   338 PWs)   bands (ev):

    -5.0579   3.0181   4.9018   4.9916

          k =-0.6250 0.3750 0.8750 (   340 PWs)   bands (ev):

    -3.5485   0.3756   2.8570   4.2751

          k =-0.8750 0.6250 0.6250 (   341 PWs)   bands (ev):

    -4.5390   1.5915   3.8910   5.4643

          k = 0.8750-0.3750-0.6250 (   340 PWs)   bands (ev):

    -3.5485   0.3756   2.8570   4.2751

          k = 0.6250-0.1250-0.8750 (   347 PWs)   bands (ev):

    -2.2713  -0.7027   2.0787   3.2111

          k =-0.8750-0.3750 0.6250 (   340 PWs)   bands (ev):

    -3.5485   0.3756   2.8570   4.2751

          k =-1.1250-0.1250 0.3750 (   347 PWs)   bands (ev):

    -2.2713  -0.7027   2.0787   3.2111

          k = 0.8750 0.3750 0.6250 (   340 PWs)   bands (ev):

    -3.5485   0.3756   2.8570   4.2751

          k = 0.6250 0.6250 0.3750 (   343 PWs)   bands (ev):

    -3.3341  -0.5838   3.9346   4.6562

          k =-0.8750 0.3750 0.6250 (   340 PWs)   bands (ev):

    -3.5485   0.3756   2.8570   4.2751

          k =-1.1250 0.6250 0.3750 (   340 PWs)   bands (ev):

    -3.5485   0.3756   2.8570   4.2751

          k =-0.5000 0.7500 0.2500 (   346 PWs)   bands (ev):

    -2.8717  -0.6031   2.7321   4.0364

          k =-0.7500 1.0000 0.0000 (   342 PWs)   bands (ev):

    -1.5120  -1.5120   2.7425   2.7425

          k =-0.5000 0.2500 0.7500 (   346 PWs)   bands (ev):

    -2.8717  -0.6031   2.7321   4.0364

          k =-0.7500 0.5000 0.5000 (   340 PWs)   bands (ev):

    -3.5889  -0.2002   3.7454   4.9613

          k = 0.7500-0.2500-0.5000 (   346 PWs)   bands (ev):

    -2.8717  -0.6031   2.7321   4.0364

          k = 0.5000 0.0000-0.7500 (   346 PWs)   bands (ev):

    -2.6286  -0.3358   1.9058   3.5993

          k =-0.7500 1.0000 0.2500 (   340 PWs)   bands (ev):

    -3.1710   0.2852   2.8019   3.4182

          k =-1.0000 1.2500 0.0000 (   342 PWs)   bands (ev):

    -1.5120  -1.5120   2.7425   2.7425

          k =-0.7500 1.0000-0.2500 (   340 PWs)   bands (ev):

    -3.1710   0.2852   2.8019   3.4182

          k =-1.0000 1.2500-0.5000 (   339 PWs)   bands (ev):

    -4.4589   1.9606   3.4672   4.7947

          k = 1.0000 0.2500 0.7500 (   340 PWs)   bands (ev):

    -3.1710   0.2852   2.8019   3.4182

          k = 0.7500 0.5000 0.5000 (   340 PWs)   bands (ev):

    -3.5889  -0.2002   3.7454   4.9613

          k =-0.6250 0.8750 0.1250 (   347 PWs)   bands (ev):

    -2.2713  -0.7027   2.0787   3.2111

          k =-0.8750 1.1250-0.1250 (   343 PWs)   bands (ev):

    -2.4610  -0.5930   2.7231   3.5074

          k =-0.6250 0.8750-0.1250 (   347 PWs)   bands (ev):

    -2.2713  -0.7027   2.0787   3.2111

          k =-0.8750 1.1250-0.3750 (   337 PWs)   bands (ev):

    -3.9877   1.3113   3.5170   3.9925

          k =-0.6250 0.1250 0.8750 (   347 PWs)   bands (ev):

    -2.2713  -0.7027   2.0787   3.2111

          k =-0.8750 0.3750 0.6250 (   340 PWs)   bands (ev):

    -3.5485   0.3756   2.8570   4.2751

          k = 0.8750-0.1250-0.6250 (   347 PWs)   bands (ev):

    -2.2713  -0.7027   2.0787   3.2111

          k = 0.6250 0.1250-0.8750 (   347 PWs)   bands (ev):

    -2.2713  -0.7027   2.0787   3.2111

          k =-0.8750-0.1250 0.6250 (   347 PWs)   bands (ev):

    -2.2713  -0.7027   2.0787   3.2111

          k =-1.1250 0.1250 0.3750 (   347 PWs)   bands (ev):

    -2.2713  -0.7027   2.0787   3.2111

          k = 0.8750 0.1250 0.6250 (   347 PWs)   bands (ev):

    -2.2713  -0.7027   2.0787   3.2111

          k = 0.6250 0.3750 0.3750 (   343 PWs)   bands (ev):

    -3.3341  -0.5838   3.9346   4.6562

          k =-0.8750 0.1250 0.6250 (   347 PWs)   bands (ev):

    -2.2713  -0.7027   2.0787   3.2111

          k =-1.1250 0.3750 0.3750 (   344 PWs)   bands (ev):

    -2.8214  -0.4385   2.1618   4.3236

          k =-0.5000 0.7500 0.0000 (   346 PWs)   bands (ev):

    -2.6286  -0.3358   1.9058   3.5993

          k =-0.7500 1.0000-0.2500 (   340 PWs)   bands (ev):

    -3.1710   0.2852   2.8019   3.4182

          k =-0.5000 0.0000 0.7500 (   346 PWs)   bands (ev):

    -2.6286  -0.3358   1.9058   3.5993

          k =-0.7500 0.2500 0.5000 (   346 PWs)   bands (ev):

    -2.8717  -0.6031   2.7321   4.0364

          k =-0.7500 0.0000 0.5000 (   346 PWs)   bands (ev):

    -2.6286  -0.3358   1.9058   3.5993

          k =-1.0000 0.2500 0.2500 (   347 PWs)   bands (ev):

    -1.9996  -1.0047   1.8242   3.7711

          k = 0.2500 0.0000 1.0000 (   342 PWs)   bands (ev):

    -1.5120  -1.5120   2.7425   2.7425

          k = 0.0000 0.2500 0.7500 (   340 PWs)   bands (ev):

    -3.1710   0.2852   2.8019   3.4182

     Writing output data file si.save

                                                                                

     bravais-lattice index     =            2
     lattice parameter (alat)  =      10.2000  a.u.
     unit-cell volume          =     265.3020 (a.u.)^3
     number of atoms/cell      =            2
     number of atomic types    =            1
     kinetic-energy cut-off    =      18.0000  Ry
     charge density cut-off    =      72.0000  Ry
     convergence threshold     =      1.0E-12
     beta                      =       0.7000
     number of iterations used =            4
     Exchange-correlation      =  SLA  PZ   NOGX NOGC ( 1 1 0 0 0)
     EXX-fraction              =        0.00


     celldm(1)=   10.20000  celldm(2)=    0.00000  celldm(3)=    0.00000
     celldm(4)=    0.00000  celldm(5)=    0.00000  celldm(6)=    0.00000

     crystal axes: (cart. coord. in units of alat)
               a(1) = ( -0.5000  0.0000  0.5000 )  
               a(2) = (  0.0000  0.5000  0.5000 )  
               a(3) = ( -0.5000  0.5000  0.0000 )  

     reciprocal axes: (cart. coord. in units 2 pi/alat)
               b(1) = ( -1.0000 -1.0000  1.0000 )  
               b(2) = (  1.0000  1.0000  1.0000 )  
               b(3) = ( -1.0000  1.0000 -1.0000 )  


     Atoms inside the unit cell: 

   Cartesian axes

     site n.  atom      mass           positions (alat units)
        1        Si  28.0860   tau( 1) = (    0.00000    0.00000    0.00000  )
        2        Si  28.0860   tau( 2) = (    0.25000    0.25000    0.25000  )

     Computing dynamical matrix for 
                    q = (  -0.2500000   0.2500000  -0.2500000 )
 
      6 Sym.Ops. (no q -> -q+G )


     G cutoff =  189.7462  (    683 G-vectors)     FFT grid: ( 20, 20, 20)
     number of k points=   240

     PseudoPot. # 1 for Si read from file:
     /home/ywg/QuantumEspresso/pseudo/Si.pz-vbc.UPF
     MD5 check sum: 6dfa03ddd5817404712e03e4d12deb78
     Pseudo is Norm-conserving, Zval =  4.0
     Generated by new atomic code, or converted to UPF format
     Using radial grid of  431 points,  2 beta functions with: 
                l(1) =   0
                l(2) =   1


     Atomic displacements:
     There are   4 irreducible representations

     Representation     1      1 modes -A_1  L_1 To be done

     Representation     2      1 modes -A_1  L_1 To be done

     Representation     3      2 modes -E    L_3 To be done

     Representation     4      2 modes -E    L_3 To be done



     Alpha used in Ewald sum =   0.7000
     PHONON       :    39.53s CPU        43.50s WALL



     Representation #  1 mode #   1

     Self-consistent Calculation

      iter #   1 total cpu time :    44.1 secs   av.it.:   5.7
      thresh= 0.100E-01 alpha_mix =  0.700 |ddv_scf|^2 =  0.264E-02

      iter #   2 total cpu time :    45.4 secs   av.it.:   7.3
      thresh= 0.513E-02 alpha_mix =  0.700 |ddv_scf|^2 =  0.404E-01

      iter #   3 total cpu time :    46.1 secs   av.it.:   6.3
      thresh= 0.100E-01 alpha_mix =  0.700 |ddv_scf|^2 =  0.170E-05

      iter #   4 total cpu time :    46.9 secs   av.it.:   7.7
      thresh= 0.131E-03 alpha_mix =  0.700 |ddv_scf|^2 =  0.160E-06

      iter #   5 total cpu time :    47.6 secs   av.it.:   7.4
      thresh= 0.400E-04 alpha_mix =  0.700 |ddv_scf|^2 =  0.432E-09

      iter #   6 total cpu time :    48.3 secs   av.it.:   7.7
      thresh= 0.208E-05 alpha_mix =  0.700 |ddv_scf|^2 =  0.483E-09

      iter #   7 total cpu time :    49.0 secs   av.it.:   6.3
      thresh= 0.220E-05 alpha_mix =  0.700 |ddv_scf|^2 =  0.932E-10

      iter #   8 total cpu time :    49.7 secs   av.it.:   7.0
      thresh= 0.965E-06 alpha_mix =  0.700 |ddv_scf|^2 =  0.459E-12

     End of self-consistent calculation

     Convergence has been achieved 


     Representation #  2 mode #   2

     Self-consistent Calculation

      iter #   1 total cpu time :    50.4 secs   av.it.:   5.7
      thresh= 0.100E-01 alpha_mix =  0.700 |ddv_scf|^2 =  0.264E-02

      iter #   2 total cpu time :    51.2 secs   av.it.:   7.3
      thresh= 0.513E-02 alpha_mix =  0.700 |ddv_scf|^2 =  0.404E-01

      iter #   3 total cpu time :    51.8 secs   av.it.:   6.3
      thresh= 0.100E-01 alpha_mix =  0.700 |ddv_scf|^2 =  0.170E-05

      iter #   4 total cpu time :    52.6 secs   av.it.:   7.7
      thresh= 0.131E-03 alpha_mix =  0.700 |ddv_scf|^2 =  0.160E-06

      iter #   5 total cpu time :    53.3 secs   av.it.:   7.4
      thresh= 0.399E-04 alpha_mix =  0.700 |ddv_scf|^2 =  0.424E-09

      iter #   6 total cpu time :    54.1 secs   av.it.:   7.7
      thresh= 0.206E-05 alpha_mix =  0.700 |ddv_scf|^2 =  0.445E-09

      iter #   7 total cpu time :    54.8 secs   av.it.:   6.3
      thresh= 0.211E-05 alpha_mix =  0.700 |ddv_scf|^2 =  0.988E-10

      iter #   8 total cpu time :    55.8 secs   av.it.:   7.0
      thresh= 0.994E-06 alpha_mix =  0.700 |ddv_scf|^2 =  0.459E-12

     End of self-consistent calculation

     Convergence has been achieved 


     Representation #  3 modes #   3  4

     Self-consistent Calculation

      iter #   1 total cpu time :    57.0 secs   av.it.:   5.2
      thresh= 0.100E-01 alpha_mix =  0.700 |ddv_scf|^2 =  0.510E-06

      iter #   2 total cpu time :    58.7 secs   av.it.:   9.4
      thresh= 0.714E-04 alpha_mix =  0.700 |ddv_scf|^2 =  0.278E-07

      iter #   3 total cpu time :    61.1 secs   av.it.:   9.2
      thresh= 0.167E-04 alpha_mix =  0.700 |ddv_scf|^2 =  0.127E-09

      iter #   4 total cpu time :    62.8 secs   av.it.:   9.0
      thresh= 0.113E-05 alpha_mix =  0.700 |ddv_scf|^2 =  0.832E-11

[...]

    -5.2616   3.5663   4.5786   5.9574

          k =-0.5000-0.7500 0.2500 (   346 PWs)   bands (ev):

    -2.8717  -0.6031   2.7321   4.0364

          k = 0.5000 0.0000 0.0000 (   343 PWs)   bands (ev):

    -4.7123   2.7570   4.3166   4.3166

          k = 0.0000-1.0000 0.0000 (   342 PWs)   bands (ev):

    -1.5972  -1.5972   3.3339   3.3339

          k = 0.1250-0.6250 0.1250 (   337 PWs)   bands (ev):

    -3.9877   1.3113   3.5170   3.9925

          k =-0.3750-1.6250 0.1250 (   341 PWs)   bands (ev):

    -4.5390   1.5915   3.8910   5.4643

          k = 0.6250-0.1250-0.1250 (   337 PWs)   bands (ev):

    -3.9877   1.3113   3.5170   3.9925

          k = 0.1250-1.1250-0.1250 (   343 PWs)   bands (ev):

    -2.4610  -0.5930   2.7231   3.5074

          k =-0.7500 0.2500-0.7500 (   346 PWs)   bands (ev):

    -3.0382  -0.1686   2.6343   3.9963

          k =-1.2500-0.7500-0.7500 (   344 PWs)   bands (ev):

    -4.9976   2.2885   5.4762   5.4762

          k =-0.2500 0.7500 0.7500 (   346 PWs)   bands (ev):

    -3.0382  -0.1686   2.6343   3.9963

          k =-0.7500-0.2500 0.7500 (   346 PWs)   bands (ev):

    -3.0382  -0.1686   2.6343   3.9963

          k =-0.6250 0.1250-0.6250 (   344 PWs)   bands (ev):

    -2.8214  -0.4385   2.1618   4.3236

          k =-1.1250-0.8750-0.6250 (   338 PWs)   bands (ev):

    -5.0579   3.0181   4.9018   4.9916

          k =-0.1250 0.6250 0.6250 (   344 PWs)   bands (ev):

    -2.8214  -0.4385   2.1618   4.3236

          k =-0.6250-0.3750 0.6250 (   343 PWs)   bands (ev):

    -3.3341  -0.5838   3.9346   4.6562

          k =-0.5000 0.0000-0.5000 (   339 PWs)   bands (ev):

    -3.7271   0.7546   2.3991   4.8970

          k =-1.0000-1.0000-0.5000 (   343 PWs)   bands (ev):

    -4.7123   2.7570   4.3166   4.3166

          k = 0.0000 0.5000 0.5000 (   339 PWs)   bands (ev):

    -3.7271   0.7546   2.3991   4.8970

          k =-0.5000-0.5000 0.5000 (   344 PWs)   bands (ev):

    -3.4174  -0.8216   5.0296   5.0296

          k = 0.7500 0.0000 0.0000 (   327 PWs)   bands (ev):

    -3.3745   0.5074   3.5853   3.5853

          k = 0.2500-1.0000 0.0000 (   342 PWs)   bands (ev):

    -1.5120  -1.5120   2.7425   2.7425

          k =-0.8750 0.1250-0.8750 (   343 PWs)   bands (ev):

    -2.4610  -0.5930   2.7231   3.5074

          k =-1.3750-0.8750-0.8750 (   338 PWs)   bands (ev):

    -5.0579   3.0181   4.9018   4.9916

          k =-0.1250 0.8750 0.8750 (   343 PWs)   bands (ev):

    -2.4610  -0.5930   2.7231   3.5074

          k =-0.6250-0.1250 0.8750 (   347 PWs)   bands (ev):

    -2.2713  -0.7027   2.0787   3.2111

          k =-0.7500 0.0000-0.7500 (   347 PWs)   bands (ev):

    -1.9996  -1.0047   1.8242   3.7711

          k =-1.2500-1.0000-0.7500 (   337 PWs)   bands (ev):

    -5.2616   3.5663   4.5786   5.9574

          k = 0.0000 0.7500 0.7500 (   347 PWs)   bands (ev):

    -1.9996  -1.0047   1.8242   3.7711

          k =-0.5000-0.2500 0.7500 (   346 PWs)   bands (ev):

    -2.8717  -0.6031   2.7321   4.0364

          k =-1.0000 0.0000 0.0000 (   342 PWs)   bands (ev):

    -1.5972  -1.5972   3.3339   3.3339

          k =-1.5000-1.0000 0.0000 (   360 PWs)   bands (ev):

    -1.4205  -1.4205   2.2859   2.2859

          k = 0.0000-0.5000 0.2500 (   339 PWs)   bands (ev):

    -4.4589   1.9606   3.4672   4.7947

          k =-0.5000-1.5000 0.2500 (   340 PWs)   bands (ev):

    -3.5889  -0.2002   3.7454   4.9613

          k = 0.2500 0.5000 0.0000 (   339 PWs)   bands (ev):

    -4.4589   1.9606   3.4672   4.7947

          k =-0.2500-0.5000 0.0000 (   339 PWs)   bands (ev):

    -4.4589   1.9606   3.4672   4.7947

          k = 0.5000 0.0000-0.2500 (   339 PWs)   bands (ev):

    -4.4589   1.9606   3.4672   4.7947

          k = 0.0000-1.0000-0.2500 (   342 PWs)   bands (ev):

    -1.5120  -1.5120   2.7425   2.7425

          k =-0.5000 0.0000 0.2500 (   339 PWs)   bands (ev):

    -4.4589   1.9606   3.4672   4.7947

          k =-1.0000-1.0000 0.2500 (   327 PWs)   bands (ev):

    -3.3745   0.5074   3.5853   3.5853

          k =-0.8750 0.3750-0.6250 (   340 PWs)   bands (ev):

    -3.5485   0.3756   2.8570   4.2751

          k =-1.3750-0.6250-0.6250 (   350 PWs)   bands (ev):

    -4.0844   0.2309   5.1438   5.1438

          k =-0.6250-0.3750 0.8750 (   340 PWs)   bands (ev):

    -3.5485   0.3756   2.8570   4.2751

          k =-1.1250-1.3750 0.8750 (   338 PWs)   bands (ev):

    -5.0579   3.0181   4.9018   4.9916

          k = 0.8750 0.3750-0.6250 (   340 PWs)   bands (ev):

    -3.5485   0.3756   2.8570   4.2751

          k = 0.3750-0.6250-0.6250 (   343 PWs)   bands (ev):

    -3.3341  -0.5838   3.9346   4.6562

          k =-0.3750 0.8750 0.6250 (   340 PWs)   bands (ev):

    -3.5485   0.3756   2.8570   4.2751

          k =-0.8750-0.1250 0.6250 (   347 PWs)   bands (ev):

    -2.2713  -0.7027   2.0787   3.2111

          k = 0.3750 0.8750-0.6250 (   340 PWs)   bands (ev):

    -3.5485   0.3756   2.8570   4.2751

          k =-0.1250-0.1250-0.6250 (   337 PWs)   bands (ev):

    -3.9877   1.3113   3.5170   3.9925

          k =-0.7500 0.2500-0.5000 (   346 PWs)   bands (ev):

    -2.8717  -0.6031   2.7321   4.0364

          k =-1.2500-0.7500-0.5000 (   343 PWs)   bands (ev):

    -4.2258   0.9183   4.3898   4.6292

          k =-0.5000-0.2500 0.7500 (   346 PWs)   bands (ev):

    -2.8717  -0.6031   2.7321   4.0364

          k =-1.0000-1.2500 0.7500 (   337 PWs)   bands (ev):

    -5.2616   3.5663   4.5786   5.9574

          k = 0.7500 0.2500-0.5000 (   346 PWs)   bands (ev):

    -2.8717  -0.6031   2.7321   4.0364

          k = 0.2500-0.7500-0.5000 (   346 PWs)   bands (ev):

    -2.8717  -0.6031   2.7321   4.0364

          k =-1.0000 0.2500-0.7500 (   340 PWs)   bands (ev):

    -3.1710   0.2852   2.8019   3.4182

          k =-1.5000-0.7500-0.7500 (   343 PWs)   bands (ev):

    -4.2258   0.9183   4.3898   4.6292

          k =-0.7500-0.2500 1.0000 (   340 PWs)   bands (ev):

    -3.1710   0.2852   2.8019   3.4182

          k =-1.2500-1.2500 1.0000 (   337 PWs)   bands (ev):

    -5.2616   3.5663   4.5786   5.9574

          k =-0.2500 1.0000 0.7500 (   340 PWs)   bands (ev):

    -3.1710   0.2852   2.8019   3.4182

          k =-0.7500 0.0000 0.7500 (   347 PWs)   bands (ev):

    -1.9996  -1.0047   1.8242   3.7711

          k = 0.2500 1.0000-0.7500 (   340 PWs)   bands (ev):

    -3.1710   0.2852   2.8019   3.4182

          k =-0.2500 0.0000-0.7500 (   340 PWs)   bands (ev):

    -3.1710   0.2852   2.8019   3.4182

          k =-0.8750 0.1250-0.6250 (   347 PWs)   bands (ev):

    -2.2713  -0.7027   2.0787   3.2111

          k =-1.3750-0.8750-0.6250 (   341 PWs)   bands (ev):

    -4.5390   1.5915   3.8910   5.4643

          k =-0.6250-0.1250 0.8750 (   347 PWs)   bands (ev):

    -2.2713  -0.7027   2.0787   3.2111

          k =-1.1250-1.1250 0.8750 (   335 PWs)   bands (ev):

    -5.6034   4.6474   5.9575   5.9575

          k = 0.8750 0.1250-0.6250 (   347 PWs)   bands (ev):

    -2.2713  -0.7027   2.0787   3.2111

          k = 0.3750-0.8750-0.6250 (   340 PWs)   bands (ev):

    -3.5485   0.3756   2.8570   4.2751

          k =-0.1250 0.8750 0.6250 (   347 PWs)   bands (ev):

    -2.2713  -0.7027   2.0787   3.2111

          k =-0.6250-0.1250 0.6250 (   344 PWs)   bands (ev):

    -2.8214  -0.4385   2.1618   4.3236

          k = 0.1250 0.8750-0.6250 (   347 PWs)   bands (ev):

    -2.2713  -0.7027   2.0787   3.2111

          k =-0.3750-0.1250-0.6250 (   340 PWs)   bands (ev):

    -3.5485   0.3756   2.8570   4.2751

          k =-0.7500 0.0000-0.5000 (   346 PWs)   bands (ev):

    -2.6286  -0.3358   1.9058   3.5993

          k =-1.2500-1.0000-0.5000 (   339 PWs)   bands (ev):

    -4.4589   1.9606   3.4672   4.7947

          k =-0.5000 0.0000 0.7500 (   346 PWs)   bands (ev):

    -2.6286  -0.3358   1.9058   3.5993

          k =-1.0000-1.0000 0.7500 (   335 PWs)   bands (ev):

    -5.5336   4.9431   5.4248   5.4248

          k = 0.7500 0.0000-0.5000 (   346 PWs)   bands (ev):

    -2.6286  -0.3358   1.9058   3.5993

          k = 0.2500-1.0000-0.5000 (   346 PWs)   bands (ev):

    -2.6286  -0.3358   1.9058   3.5993

          k = 0.0000 0.7500 0.5000 (   346 PWs)   bands (ev):

    -2.6286  -0.3358   1.9058   3.5993

          k =-0.5000-0.2500 0.5000 (   340 PWs)   bands (ev):

    -3.5889  -0.2002   3.7454   4.9613

          k = 0.0000 1.0000 0.2500 (   342 PWs)   bands (ev):

    -1.5120  -1.5120   2.7425   2.7425

          k =-0.5000 0.0000 0.2500 (   339 PWs)   bands (ev):

    -4.4589   1.9606   3.4672   4.7947

          k = 0.2500-1.0000 0.0000 (   342 PWs)   bands (ev):

    -1.5120  -1.5120   2.7425   2.7425

          k =-0.2500-2.0000 0.0000 (   335 PWs)   bands (ev):

    -5.5336   4.9431   5.4248   5.4248

          k =-1.0000 0.0000-0.2500 (   342 PWs)   bands (ev):

    -1.5120  -1.5120   2.7425   2.7425

          k =-1.5000-1.0000-0.2500 (   346 PWs)   bands (ev):

    -2.6286  -0.3358   1.9058   3.5993

          k = 0.0000 1.0000 0.5000 (   360 PWs)   bands (ev):

    -1.4205  -1.4205   2.2859   2.2859

          k =-0.5000 0.0000 0.5000 (   339 PWs)   bands (ev):

    -3.7271   0.7546   2.3991   4.8970

          k = 0.5000-1.0000 0.0000 (   360 PWs)   bands (ev):

    -1.4205  -1.4205   2.2859   2.2859

          k = 0.0000-2.0000 0.0000 (   331 PWs)   bands (ev):

    -5.8094   6.2556   6.2556   6.2556

     Writing output data file si.save

                                                                                

     bravais-lattice index     =            2
     lattice parameter (alat)  =      10.2000  a.u.
     unit-cell volume          =     265.3020 (a.u.)^3
     number of atoms/cell      =            2
     number of atomic types    =            1
     kinetic-energy cut-off    =      18.0000  Ry
     charge density cut-off    =      72.0000  Ry
     convergence threshold     =      1.0E-12
     beta                      =       0.7000
     number of iterations used =            4
     Exchange-correlation      =  SLA  PZ   NOGX NOGC ( 1 1 0 0 0)
     EXX-fraction              =        0.00


     celldm(1)=   10.20000  celldm(2)=    0.00000  celldm(3)=    0.00000
     celldm(4)=    0.00000  celldm(5)=    0.00000  celldm(6)=    0.00000

     crystal axes: (cart. coord. in units of alat)
               a(1) = ( -0.5000  0.0000  0.5000 )  
               a(2) = (  0.0000  0.5000  0.5000 )  
               a(3) = ( -0.5000  0.5000  0.0000 )  

     reciprocal axes: (cart. coord. in units 2 pi/alat)
               b(1) = ( -1.0000 -1.0000  1.0000 )  
               b(2) = (  1.0000  1.0000  1.0000 )  
               b(3) = ( -1.0000  1.0000 -1.0000 )  


     Atoms inside the unit cell: 

   Cartesian axes

     site n.  atom      mass           positions (alat units)
        1        Si  28.0860   tau( 1) = (    0.00000    0.00000    0.00000  )
        2        Si  28.0860   tau( 2) = (    0.25000    0.25000    0.25000  )

     Computing dynamical matrix for 
                    q = (  -0.5000000  -1.0000000   0.0000000 )
 
      8 Sym.Ops. (no q -> -q+G )


     G cutoff =  189.7462  (    683 G-vectors)     FFT grid: ( 20, 20, 20)
     number of k points=   174

     PseudoPot. # 1 for Si read from file:
     /home/ywg/QuantumEspresso/pseudo/Si.pz-vbc.UPF
     MD5 check sum: 6dfa03ddd5817404712e03e4d12deb78
     Pseudo is Norm-conserving, Zval =  4.0
     Generated by new atomic code, or converted to UPF format
     Using radial grid of  431 points,  2 beta functions with: 
                l(1) =   0
                l(2) =   1


     Atomic displacements:
     There are   3 irreducible representations

     Representation     1      2 modes -A_1  L_1 To be done

     Representation     2      2 modes -A_1  L_1 To be done

     Representation     3      2 modes -E    L_3 To be done



     Alpha used in Ewald sum =   0.7000
     PHONON       : 29m11.63s CPU    32m59.83s WALL



     Representation #  1 modes #   1  2

     Self-consistent Calculation

      iter #   1 total cpu time :  1980.8 secs   av.it.:   5.6
      thresh= 0.100E-01 alpha_mix =  0.700 |ddv_scf|^2 =  0.785E-05

      iter #   2 total cpu time :  1982.1 secs   av.it.:   9.1
      thresh= 0.280E-03 alpha_mix =  0.700 |ddv_scf|^2 =  0.502E-05

      iter #   3 total cpu time :  1984.6 secs   av.it.:   8.6
      thresh= 0.224E-03 alpha_mix =  0.700 |ddv_scf|^2 =  0.234E-09

      iter #   4 total cpu time :  1985.8 secs   av.it.:   8.5
      thresh= 0.153E-05 alpha_mix =  0.700 |ddv_scf|^2 =  0.161E-10

      iter #   5 total cpu time :  1987.1 secs   av.it.:   8.7
      thresh= 0.401E-06 alpha_mix =  0.700 |ddv_scf|^2 =  0.306E-13

     End of self-consistent calculation

     Convergence has been achieved 


     Representation #  2 modes #   3  4

     Self-consistent Calculation

      iter #   1 total cpu time :  1989.7 secs   av.it.:   5.4
      thresh= 0.100E-01 alpha_mix =  0.700 |ddv_scf|^2 =  0.105E-04

      iter #   2 total cpu time :  1991.0 secs   av.it.:   9.2
      thresh= 0.324E-03 alpha_mix =  0.700 |ddv_scf|^2 =  0.135E-04

      iter #   3 total cpu time :  1992.2 secs   av.it.:   8.4
      thresh= 0.367E-03 alpha_mix =  0.700 |ddv_scf|^2 =  0.161E-08

      iter #   4 total cpu time :  1994.8 secs   av.it.:   8.8
      thresh= 0.402E-05 alpha_mix =  0.700 |ddv_scf|^2 =  0.342E-10

      iter #   5 total cpu time :  1996.1 secs   av.it.:   8.7
      thresh= 0.585E-06 alpha_mix =  0.700 |ddv_scf|^2 =  0.117E-12

     End of self-consistent calculation

     Convergence has been achieved 


     Representation #  3 modes #   5  6

     Self-consistent Calculation

      iter #   1 total cpu time :  1997.0 secs   av.it.:   5.1
      thresh= 0.100E-01 alpha_mix =  0.700 |ddv_scf|^2 =  0.310E-05

      iter #   2 total cpu time :  2000.8 secs   av.it.:   9.0
      thresh= 0.176E-03 alpha_mix =  0.700 |ddv_scf|^2 =  0.203E-05

      iter #   3 total cpu time :  2002.2 secs   av.it.:   8.4
      thresh= 0.143E-03 alpha_mix =  0.700 |ddv_scf|^2 =  0.237E-09

      iter #   4 total cpu time :  2004.1 secs   av.it.:   8.7
      thresh= 0.154E-05 alpha_mix =  0.700 |ddv_scf|^2 =  0.250E-10

      iter #   5 total cpu time :  2005.4 secs   av.it.:   8.6
      thresh= 0.500E-06 alpha_mix =  0.700 |ddv_scf|^2 =  0.168E-13

     End of self-consistent calculation

     Convergence has been achieved 
 
     Number of q in the star =    6
     List of q in the star:
          1  -0.500000000  -1.000000000   0.000000000
          2   0.000000000   1.000000000   0.500000000
          3   0.500000000  -1.000000000   0.000000000
          4   0.000000000   1.000000000  -0.500000000
          5  -1.000000000  -0.500000000   0.000000000
          6   0.000000000  -0.500000000  -1.000000000

     Diagonalizing the dynamical matrix

     q = (   -0.500000000  -1.000000000   0.000000000 ) 

 **************************************************************************
     omega( 1) =       6.036231 [THz] =     201.346977 [cm-1]
     omega( 2) =       6.036231 [THz] =     201.346977 [cm-1]
     omega( 3) =      10.530807 [THz] =     351.269913 [cm-1]
     omega( 4) =      10.530807 [THz] =     351.269913 [cm-1]
     omega( 5) =      13.935715 [THz] =     464.845418 [cm-1]
     omega( 6) =      13.935715 [THz] =     464.845418 [cm-1]
 **************************************************************************
 
     init_run     :      0.39s CPU      0.44s WALL (      28 calls)
     electrons    :    113.12s CPU    123.21s WALL (      28 calls)

     Called by init_run:
     wfcinit      :      0.00s CPU      0.00s WALL (      28 calls)
     potinit      :      0.05s CPU      0.05s WALL (      28 calls)

     Called by electrons:
     c_bands      :    113.07s CPU    123.04s WALL (      28 calls)
     v_of_rho     :      0.01s CPU      0.01s WALL (      29 calls)

     Called by c_bands:
     init_us_2    :      6.67s CPU      6.75s WALL (  314815 calls)
     cegterg      :     94.63s CPU     97.12s WALL (   12542 calls)

     Called by *egterg:
     h_psi        :     87.82s CPU     90.08s WALL (  164184 calls)
     g_psi        :      1.40s CPU      1.44s WALL (  139100 calls)
     cdiaghg      :     12.32s CPU     12.57s WALL (  151642 calls)

     Called by h_psi:
     add_vuspsi   :     18.40s CPU     21.12s WALL ( 2524753 calls)

     General routines
     calbec       :     74.85s CPU     73.24s WALL ( 5099609 calls)
     fft          :      0.30s CPU      0.32s WALL (    3536 calls)
     ffts         :      3.44s CPU      3.43s WALL (   38856 calls)
     fftw         :   1369.48s CPU   1393.72s WALL (22528344 calls)
     davcio       :      4.96s CPU    164.98s WALL ( 1350020 calls)
 
     Parallel routines
     fft_scatter  :    380.61s CPU    369.98s WALL (22570736 calls)
     EXX routines
 
     PHONON       : 29m28.85s CPU    33m25.45s WALL

     INITIALIZATION: 
     phq_setup    :      0.17s CPU      0.18s WALL (      29 calls)
     phq_init     :      2.12s CPU      3.79s WALL (      29 calls)
 
     phq_init     :      2.12s CPU      3.79s WALL (      29 calls)
     init_vloc    :      0.01s CPU      0.02s WALL (      29 calls)
     init_us_1    :      0.08s CPU      0.08s WALL (      29 calls)
 
     DYNAMICAL MATRIX:
     dynmat0      :      1.02s CPU      2.48s WALL (      29 calls)
     phqscf       :   1632.95s CPU   1853.62s WALL (      29 calls)
     dynmatrix    :      0.13s CPU      0.16s WALL (      29 calls)
 
     phqscf       :   1632.95s CPU   1853.62s WALL (      29 calls)
     solve_linter :   1628.43s CPU   1844.48s WALL (     147 calls)
     drhodv       :      3.89s CPU      4.41s WALL (     147 calls)
 
     dynmat0      :      1.02s CPU      2.48s WALL (      29 calls)
     dynmat_us    :      0.99s CPU      1.08s WALL (      29 calls)
     d2ionq       :      0.01s CPU      0.01s WALL (      29 calls)
 
     dynmat_us    :      0.99s CPU      1.08s WALL (      29 calls)
 
     phqscf       :   1632.95s CPU   1853.62s WALL (      29 calls)
     solve_linter :   1628.43s CPU   1844.48s WALL (     147 calls)
 
     solve_linter :   1628.43s CPU   1844.48s WALL (     147 calls)
     dvqpsi_us    :     24.70s CPU     25.24s WALL (   37974 calls)
     ortho        :      9.42s CPU      9.67s WALL (  267385 calls)
     cgsolve      :   1302.90s CPU   1344.86s WALL (  267385 calls)
     incdrhoscf   :    156.93s CPU    160.32s WALL (  267298 calls)
     vpsifft      :    117.34s CPU    120.63s WALL (  229063 calls)
     dv_of_drho   :      0.31s CPU      0.34s WALL (    1140 calls)
     mix_pot      :      1.07s CPU     14.46s WALL (     998 calls)
     psymdvscf    :      1.35s CPU      1.35s WALL (     891 calls)
 
     dvqpsi_us    :     24.70s CPU     25.24s WALL (   37974 calls)
     dvqpsi_us_on :      1.27s CPU      1.23s WALL (   37974 calls)
 
     cgsolve      :   1302.90s CPU   1344.86s WALL (  267385 calls)
     ch_psi       :   1243.56s CPU   1285.29s WALL ( 2360569 calls)
 
     ch_psi       :   1243.56s CPU   1285.29s WALL ( 2360569 calls)
     h_psiq       :   1157.58s CPU   1194.30s WALL ( 2360569 calls)
     last         :     79.32s CPU     82.07s WALL ( 2360569 calls)
 
     h_psiq       :   1157.58s CPU   1194.30s WALL ( 2360569 calls)
     firstfft     :    526.97s CPU    549.81s WALL ( 8499206 calls)
     secondfft    :    528.79s CPU    533.05s WALL ( 8499206 calls)
     add_vuspsi   :     18.40s CPU     21.12s WALL ( 2524753 calls)
 
     incdrhoscf   :    156.93s CPU    160.32s WALL (  267298 calls)
 
 
      General routines
     calbec       :     74.85s CPU     73.24s WALL ( 5099609 calls)
     fft          :      0.30s CPU      0.32s WALL (    3536 calls)
     ffts         :      3.44s CPU      3.43s WALL (   38856 calls)
     fftw         :   1369.48s CPU   1393.72s WALL (22528344 calls)
     davcio       :      4.96s CPU    164.98s WALL ( 1350020 calls)
     write_rec    :      4.13s CPU     17.38s WALL (    1145 calls)
 
