
     Program PWSCF v.5.0        starts on 17Jul2012 at 16:34:44 

     This program is part of the open-source Quantum ESPRESSO suite
     for quantum simulation of materials; please cite
         "P. Giannozzi et al., J. Phys.:Condens. Matter 21 395502 (2009);
          URL http://www.quantum-espresso.org", 
     in publications or presentations arising from this work. More details at
     http://www.quantum-espresso.org/quote.php

     Parallel version (MPI), running on     4 processors
     R & G space division:  proc/pool =    4

     Current dimensions of program PWSCF are:
     Max number of different atomic species (ntypx) = 10
     Max number of k-points (npk) =  40000
     Max angular momentum in pseudopotentials (lmaxx) =  3
     Waiting for input...
     Reading input from standard input

     Subspace diagonalization in iterative solution of the eigenvalue problem:
     a serial algorithm will be used

 
     Parallelization info
     --------------------
     sticks:   dense  smooth     PW     G-vecs:    dense   smooth      PW
     Min          63      63     21                  682      682     133
     Max          64      64     22                  686      686     136
     Sum         253     253     85                 2733     2733     537
 


     bravais-lattice index     =            2
     lattice parameter (alat)  =      10.2000  a.u.
     unit-cell volume          =     265.3020 (a.u.)^3
     number of atoms/cell      =            2
     number of atomic types    =            1
     number of electrons       =         8.00
     number of Kohn-Sham states=            4
     kinetic-energy cutoff     =      18.0000  Ry
     charge density cutoff     =      72.0000  Ry
     convergence threshold     =      1.0E-08
     mixing beta               =       0.7000
     number of iterations used =            8  plain     mixing
     Exchange-correlation      =  SLA  PZ   NOGX NOGC ( 1 1 0 0 0)
     EXX-fraction              =        0.00

     celldm(1)=  10.200000  celldm(2)=   0.000000  celldm(3)=   0.000000
     celldm(4)=   0.000000  celldm(5)=   0.000000  celldm(6)=   0.000000

     crystal axes: (cart. coord. in units of alat)
               a(1) = (  -0.500000   0.000000   0.500000 )  
               a(2) = (   0.000000   0.500000   0.500000 )  
               a(3) = (  -0.500000   0.500000   0.000000 )  

     reciprocal axes: (cart. coord. in units 2 pi/alat)
               b(1) = ( -1.000000 -1.000000  1.000000 )  
               b(2) = (  1.000000  1.000000  1.000000 )  
               b(3) = ( -1.000000  1.000000 -1.000000 )  


     PseudoPot. # 1 for Si read from file:
     /home/ywg/QuantumEspresso/pseudo/Si.pz-vbc.UPF
     MD5 check sum: 6dfa03ddd5817404712e03e4d12deb78
     Pseudo is Norm-conserving, Zval =  4.0
     Generated by new atomic code, or converted to UPF format
     Using radial grid of  431 points,  2 beta functions with: 
                l(1) =   0
                l(2) =   1

     atomic species   valence    mass     pseudopotential
        Si             4.00    28.08600     Si( 1.00)

     48 Sym. Ops., with inversion, found (24 have fractional translation)



   Cartesian axes

     site n.     atom                  positions (alat units)
         1           Si  tau(   1) = (   0.0000000   0.0000000   0.0000000  )
         2           Si  tau(   2) = (   0.2500000   0.2500000   0.2500000  )

     number of k points=    29
                       cart. coord. in units 2pi/alat
        k(    1) = (   0.0000000   0.0000000   0.0000000), wk =   0.0039062
        k(    2) = (  -0.1250000   0.1250000  -0.1250000), wk =   0.0312500
        k(    3) = (  -0.2500000   0.2500000  -0.2500000), wk =   0.0312500
        k(    4) = (  -0.3750000   0.3750000  -0.3750000), wk =   0.0312500
        k(    5) = (   0.5000000  -0.5000000   0.5000000), wk =   0.0156250
        k(    6) = (   0.0000000   0.2500000   0.0000000), wk =   0.0234375
        k(    7) = (  -0.1250000   0.3750000  -0.1250000), wk =   0.0937500
        k(    8) = (  -0.2500000   0.5000000  -0.2500000), wk =   0.0937500
        k(    9) = (   0.6250000  -0.3750000   0.6250000), wk =   0.0937500
        k(   10) = (   0.5000000  -0.2500000   0.5000000), wk =   0.0937500
        k(   11) = (   0.3750000  -0.1250000   0.3750000), wk =   0.0937500
        k(   12) = (   0.2500000   0.0000000   0.2500000), wk =   0.0468750
        k(   13) = (   0.0000000   0.5000000   0.0000000), wk =   0.0234375
        k(   14) = (  -0.1250000   0.6250000  -0.1250000), wk =   0.0937500
        k(   15) = (   0.7500000  -0.2500000   0.7500000), wk =   0.0937500
        k(   16) = (   0.6250000  -0.1250000   0.6250000), wk =   0.0937500
        k(   17) = (   0.5000000   0.0000000   0.5000000), wk =   0.0468750
        k(   18) = (   0.0000000   0.7500000   0.0000000), wk =   0.0234375
        k(   19) = (   0.8750000  -0.1250000   0.8750000), wk =   0.0937500
        k(   20) = (   0.7500000   0.0000000   0.7500000), wk =   0.0468750
        k(   21) = (   0.0000000  -1.0000000   0.0000000), wk =   0.0117188
        k(   22) = (  -0.2500000   0.5000000   0.0000000), wk =   0.0937500
        k(   23) = (   0.6250000  -0.3750000   0.8750000), wk =   0.1875000
        k(   24) = (   0.5000000  -0.2500000   0.7500000), wk =   0.0937500
        k(   25) = (   0.7500000  -0.2500000   1.0000000), wk =   0.0937500
        k(   26) = (   0.6250000  -0.1250000   0.8750000), wk =   0.1875000
        k(   27) = (   0.5000000   0.0000000   0.7500000), wk =   0.0937500
        k(   28) = (  -0.2500000  -1.0000000   0.0000000), wk =   0.0468750
        k(   29) = (  -0.5000000  -1.0000000   0.0000000), wk =   0.0234375

     Dense  grid:     2733 G-vectors     FFT dimensions: (  20,  20,  20)

     Largest allocated arrays     est. size (Mb)     dimensions
        Kohn-Sham Wavefunctions         0.01 Mb     (     89,    4)
        NL pseudopotentials             0.01 Mb     (     89,    8)
        Each V/rho on FFT grid          0.03 Mb     (   2000)
        Each G-vector array             0.01 Mb     (    683)
        G-vector shells                 0.00 Mb     (     61)
     Largest temporary arrays     est. size (Mb)     dimensions
        Auxiliary wavefunctions         0.02 Mb     (     89,   16)
        Each subspace H/S matrix        0.00 Mb     (  16,  16)
        Each <psi_i|beta_j> matrix      0.00 Mb     (      8,    4)
        Arrays for rho mixing           0.24 Mb     (   2000,   8)

     Initial potential from superposition of free atoms

     starting charge    7.99901, renormalised to    8.00000
     Starting wfc are    8 randomized atomic wfcs

     total cpu time spent up to now is        0.1 secs

     per-process dynamical memory:     1.0 Mb

     Self-consistent Calculation

     iteration #  1     ecut=    18.00 Ry     beta=0.70
     Davidson diagonalization with overlap
     ethr =  1.00E-02,  avg # of iterations =  2.0

     Threshold (ethr) on eigenvalues was too large:
     Diagonalizing with lowered threshold

     Davidson diagonalization with overlap
     ethr =  7.77E-04,  avg # of iterations =  1.0

     total cpu time spent up to now is        0.2 secs

     total energy              =     -15.84089679 Ry
     Harris-Foulkes estimate   =     -15.86192317 Ry
     estimated scf accuracy    <       0.06148688 Ry

     iteration #  2     ecut=    18.00 Ry     beta=0.70
     Davidson diagonalization with overlap
     ethr =  7.69E-04,  avg # of iterations =  1.0

     total cpu time spent up to now is        0.3 secs

     total energy              =     -15.84399184 Ry
     Harris-Foulkes estimate   =     -15.84429725 Ry
     estimated scf accuracy    <       0.00214746 Ry

     iteration #  3     ecut=    18.00 Ry     beta=0.70
     Davidson diagonalization with overlap
     ethr =  2.68E-05,  avg # of iterations =  2.4

     total cpu time spent up to now is        0.3 secs

     total energy              =     -15.84443493 Ry
     Harris-Foulkes estimate   =     -15.84446705 Ry
     estimated scf accuracy    <       0.00007083 Ry

     iteration #  4     ecut=    18.00 Ry     beta=0.70
     Davidson diagonalization with overlap
     ethr =  8.85E-07,  avg # of iterations =  2.1

     total cpu time spent up to now is        0.4 secs

     total energy              =     -15.84445020 Ry
     Harris-Foulkes estimate   =     -15.84445338 Ry
     estimated scf accuracy    <       0.00000697 Ry

     iteration #  5     ecut=    18.00 Ry     beta=0.70
     Davidson diagonalization with overlap
     ethr =  8.72E-08,  avg # of iterations =  2.1

     total cpu time spent up to now is        0.5 secs

     total energy              =     -15.84445123 Ry
     Harris-Foulkes estimate   =     -15.84445126 Ry
     estimated scf accuracy    <       0.00000006 Ry

     iteration #  6     ecut=    18.00 Ry     beta=0.70
     Davidson diagonalization with overlap
     ethr =  7.09E-10,  avg # of iterations =  2.7

     total cpu time spent up to now is        0.5 secs

     End of self-consistent calculation

          k = 0.0000 0.0000 0.0000 (   331 PWs)   bands (ev):

    -5.8094   6.2556   6.2556   6.2556

          k =-0.1250 0.1250-0.1250 (   335 PWs)   bands (ev):

    -5.6034   4.6473   5.9574   5.9574

          k =-0.2500 0.2500-0.2500 (   344 PWs)   bands (ev):

    -4.9976   2.2885   5.4762   5.4762

          k =-0.3750 0.3750-0.3750 (   350 PWs)   bands (ev):

    -4.0844   0.2309   5.1438   5.1438

          k = 0.5000-0.5000 0.5000 (   344 PWs)   bands (ev):

    -3.4174  -0.8216   5.0295   5.0295

          k = 0.0000 0.2500 0.0000 (   335 PWs)   bands (ev):

    -5.5336   4.9431   5.4247   5.4247

          k =-0.1250 0.3750-0.1250 (   338 PWs)   bands (ev):

    -5.0579   3.0181   4.9018   4.9915

          k =-0.2500 0.5000-0.2500 (   343 PWs)   bands (ev):

    -4.2258   0.9183   4.3898   4.6291

          k = 0.6250-0.3750 0.6250 (   343 PWs)   bands (ev):

    -3.3341  -0.5838   3.9346   4.6562

          k = 0.5000-0.2500 0.5000 (   340 PWs)   bands (ev):

    -3.5889  -0.2002   3.7454   4.9613

          k = 0.3750-0.1250 0.3750 (   341 PWs)   bands (ev):

    -4.5390   1.5914   3.8910   5.4643

          k = 0.2500 0.0000 0.2500 (   337 PWs)   bands (ev):

    -5.2617   3.5663   4.5786   5.9574

          k = 0.0000 0.5000 0.0000 (   343 PWs)   bands (ev):

    -4.7124   2.7570   4.3166   4.3166

          k =-0.1250 0.6250-0.1250 (   337 PWs)   bands (ev):

    -3.9878   1.3112   3.5170   3.9924

          k = 0.7500-0.2500 0.7500 (   346 PWs)   bands (ev):

    -3.0382  -0.1686   2.6343   3.9963

          k = 0.6250-0.1250 0.6250 (   344 PWs)   bands (ev):

    -2.8215  -0.4385   2.1618   4.3235

          k = 0.5000 0.0000 0.5000 (   339 PWs)   bands (ev):

    -3.7271   0.7545   2.3991   4.8969

          k = 0.0000 0.7500 0.0000 (   327 PWs)   bands (ev):

    -3.3746   0.5074   3.5853   3.5853

          k = 0.8750-0.1250 0.8750 (   343 PWs)   bands (ev):

    -2.4610  -0.5930   2.7231   3.5074

          k = 0.7500 0.0000 0.7500 (   347 PWs)   bands (ev):

    -1.9996  -1.0047   1.8242   3.7711

          k = 0.0000-1.0000 0.0000 (   342 PWs)   bands (ev):

    -1.5973  -1.5973   3.3339   3.3339

          k =-0.2500 0.5000 0.0000 (   339 PWs)   bands (ev):

    -4.4590   1.9606   3.4672   4.7946

          k = 0.6250-0.3750 0.8750 (   340 PWs)   bands (ev):

    -3.5485   0.3756   2.8569   4.2751

          k = 0.5000-0.2500 0.7500 (   346 PWs)   bands (ev):

    -2.8717  -0.6031   2.7321   4.0364

          k = 0.7500-0.2500 1.0000 (   340 PWs)   bands (ev):

    -3.1710   0.2852   2.8018   3.4182

          k = 0.6250-0.1250 0.8750 (   347 PWs)   bands (ev):

    -2.2713  -0.7027   2.0787   3.2111

          k = 0.5000 0.0000 0.7500 (   346 PWs)   bands (ev):

    -2.6286  -0.3359   1.9058   3.5993

          k =-0.2500-1.0000 0.0000 (   342 PWs)   bands (ev):

    -1.5120  -1.5120   2.7425   2.7425

          k =-0.5000-1.0000 0.0000 (   360 PWs)   bands (ev):

    -1.4206  -1.4206   2.2858   2.2858

!    total energy              =     -15.84445125 Ry
     Harris-Foulkes estimate   =     -15.84445125 Ry
     estimated scf accuracy    <          8.6E-10 Ry

     The total energy is the sum of the following terms:

     one-electron contribution =       4.79338981 Ry
     hartree contribution      =       1.07700655 Ry
     xc contribution           =      -4.81508894 Ry
     ewald contribution        =     -16.89975867 Ry

     convergence has been achieved in   6 iterations

     Forces acting on atoms (Ry/au):

     atom    1 type  1   force =     0.00000000    0.00000000    0.00000000
     atom    2 type  1   force =     0.00000000    0.00000000    0.00000000

     Total force =     0.000000     Total SCF correction =     0.000000


     entering subroutine stress ...

          total   stress  (Ry/bohr**3)                   (kbar)     P=  -10.09
  -0.00006859   0.00000000   0.00000000        -10.09      0.00      0.00
   0.00000000  -0.00006859   0.00000000          0.00    -10.09      0.00
   0.00000000   0.00000000  -0.00006859          0.00      0.00    -10.09


     Writing output data file si.save
 
     init_run     :      0.07s CPU      0.07s WALL (       1 calls)
     electrons    :      0.40s CPU      0.43s WALL (       1 calls)
     forces       :      0.00s CPU      0.00s WALL (       1 calls)
     stress       :      0.01s CPU      0.01s WALL (       1 calls)

     Called by init_run:
     wfcinit      :      0.04s CPU      0.05s WALL (       1 calls)
     potinit      :      0.00s CPU      0.00s WALL (       1 calls)

     Called by electrons:
     c_bands      :      0.34s CPU      0.36s WALL (       7 calls)
     sum_band     :      0.06s CPU      0.06s WALL (       7 calls)
     v_of_rho     :      0.00s CPU      0.00s WALL (       7 calls)
     mix_rho      :      0.00s CPU      0.00s WALL (       7 calls)

     Called by c_bands:
     init_us_2    :      0.00s CPU      0.01s WALL (     493 calls)
     cegterg      :      0.33s CPU      0.34s WALL (     203 calls)

     Called by *egterg:
     h_psi        :      0.29s CPU      0.31s WALL (     616 calls)
     g_psi        :      0.00s CPU      0.00s WALL (     384 calls)
     cdiaghg      :      0.04s CPU      0.04s WALL (     558 calls)

     Called by h_psi:
     add_vuspsi   :      0.00s CPU      0.00s WALL (     616 calls)

     General routines
     calbec       :      0.01s CPU      0.01s WALL (     674 calls)
     fft          :      0.00s CPU      0.00s WALL (      34 calls)
     fftw         :      0.31s CPU      0.32s WALL (    5634 calls)
     davcio       :      0.01s CPU      0.01s WALL (     696 calls)
 
     Parallel routines
     fft_scatter  :      0.11s CPU      0.09s WALL (    5668 calls)
     EXX routines
 
     PWSCF        :     0.60s CPU         0.64s WALL

 
   This run was terminated on:  16:34:44  17Jul2012            

=------------------------------------------------------------------------------=
   JOB DONE.
=------------------------------------------------------------------------------=
