ITEM: TIMESTEP
17
ITEM: NUMBER OF ATOMS
96
ITEM: BOX BOUNDS
0 16.293
0 10.862
0 10.862
ITEM: ATOMS fx fy fz 
-9.60172e-15 -1.68376e-14 3.98148e-05 
-2.56496e-05 -3.18691e-05 1.6969e-06 
2.60566e-05 -3.23579e-05 4.68976e-07 
-2.60566e-05 3.23579e-05 4.68976e-07 
2.56496e-05 3.18691e-05 1.6969e-06 
1.37936e-05 -6.49129e-06 -3.47332e-05 
1.35571e-05 6.71401e-06 -3.48586e-05 
-1.37936e-05 6.49129e-06 -3.47332e-05 
-1.35571e-05 -6.71401e-06 -3.48586e-05 
1.00949e-05 7.9124e-06 -3.22843e-05 
-1.01725e-05 7.76974e-06 -3.25609e-05 
-1.00949e-05 -7.9124e-06 -3.22843e-05 
1.01725e-05 -7.76975e-06 -3.25609e-05 
-3.4031e-06 -7.85021e-06 -3.52867e-05 
2.90176e-06 -7.8303e-06 -3.47272e-05 
-2.90176e-06 7.8303e-06 -3.47272e-05 
3.4031e-06 7.85021e-06 -3.52867e-05 
1.20099e-05 -7.23737e-06 8.2433e-06 
-1.51088e-05 -7.19845e-06 -2.25674e-05 
2.31276e-06 -7.11042e-06 -3.20993e-05 
-1.18241e-05 -7.89663e-06 7.9526e-06 
-2.06562e-06 -7.26446e-06 -3.20989e-05 
1.55469e-05 -7.1746e-06 -2.25245e-05 
-1.55469e-05 7.1746e-06 -2.25245e-05 
2.06562e-06 7.26446e-06 -3.20989e-05 
1.18241e-05 7.89663e-06 7.9526e-06 
-2.31276e-06 7.11042e-06 -3.20993e-05 
1.51088e-05 7.19845e-06 -2.25674e-05 
-1.20099e-05 7.23737e-06 8.2433e-06 
1.71036e-07 -1.5276e-11 3.33678e-05 
-1.35083e-14 -2.23227e-14 2.30262e-05 
2.09933e-15 -5.87736e-14 -1.72655e-05 
-1.71036e-07 1.52618e-11 3.33678e-05 
-4.4287e-06 -3.28276e-06 1.97102e-05 
8.90346e-06 -3.04165e-06 1.19986e-05 
-8.96783e-06 1.19626e-06 -1.26526e-05 
-9.11692e-06 -2.96166e-06 1.25494e-05 
4.1817e-06 -2.71978e-06 1.9905e-05 
9.13329e-06 1.22709e-06 -1.24314e-05 
-9.13329e-06 -1.22709e-06 -1.24314e-05 
-4.1817e-06 2.71978e-06 1.9905e-05 
9.11692e-06 2.96166e-06 1.25494e-05 
8.96783e-06 -1.19626e-06 -1.26526e-05 
-8.90346e-06 3.04165e-06 1.19986e-05 
4.4287e-06 3.28276e-06 1.97102e-05 
-1.85072e-05 -3.20777e-05 1.90441e-05 
2.08075e-05 3.24055e-05 1.86313e-05 
-2.03437e-05 3.20703e-05 1.8852e-05 
1.84908e-05 -3.23972e-05 1.84376e-05 
2.03437e-05 -3.20703e-05 1.8852e-05 
-1.84908e-05 3.23972e-05 1.84376e-05 
1.85072e-05 3.20777e-05 1.90441e-05 
-2.08075e-05 -3.24055e-05 1.86313e-05 
-2.18901e-05 3.25149e-06 -1.43028e-06 
2.18115e-05 3.50182e-06 -1.63374e-06 
2.18901e-05 -3.25149e-06 -1.43028e-06 
-2.18115e-05 -3.50182e-06 -1.63374e-06 
-2.88681e-05 -3.32361e-06 -2.43106e-05 
2.87735e-05 -3.42868e-06 -2.38818e-05 
-2.87735e-05 3.42868e-06 -2.38818e-05 
2.88681e-05 3.32361e-06 -2.43106e-05 
-3.68533e-06 3.15311e-05 -5.82517e-06 
4.69492e-06 -7.87019e-06 1.97487e-05 
4.12301e-06 3.13438e-05 -5.95384e-06 
-4.59354e-06 -8.13593e-06 1.94891e-05 
-4.12301e-06 -3.13438e-05 -5.95384e-06 
3.68533e-06 -3.15311e-05 -5.82517e-06 
9.17295e-08 3.71971e-05 -3.26862e-05 
-8.41866e-08 -3.71973e-05 -3.21803e-05 
4.9078e-15 -4.12258e-14 -5.90255e-05 
-9.17294e-08 -3.71971e-05 -3.26862e-05 
8.41866e-08 3.71973e-05 -3.21803e-05 
-1.38957e-05 1.50916e-05 -1.04154e-05 
-1.18797e-05 1.50969e-05 1.05802e-05 
1.14249e-05 1.53936e-05 1.11984e-05 
1.35073e-05 1.53981e-05 -1.03419e-05 
1.12973e-13 -2.44435e-14 3.3165e-05 
-1.4109e-15 1.53842e-15 3.31432e-05 
3.3575e-05 -6.01421e-08 6.20215e-06 
-3.3575e-05 6.0142e-08 6.20215e-06 
2.9781e-05 -2.12211e-05 4.07464e-05 
-2.98252e-05 -2.13986e-05 4.0643e-05 
2.03961e-07 1.25915e-09 3.07163e-05 
-2.0396e-07 -1.25919e-09 3.07163e-05 
4.59354e-06 8.13593e-06 1.94891e-05 
-4.69492e-06 7.87019e-06 1.97487e-05 
1.80715e-14 -1.02125e-14 4.0567e-05 
2.1218e-14 4.00553e-17 3.96895e-05 
-1.13149e-06 3.71841e-07 5.0745e-05 
1.13149e-06 -3.71841e-07 5.0745e-05 
-1.35073e-05 -1.53981e-05 -1.03419e-05 
-1.14249e-05 -1.53936e-05 1.11984e-05 
1.18797e-05 -1.50969e-05 1.05802e-05 
1.38957e-05 -1.50916e-05 -1.04154e-05 
2.98252e-05 2.13986e-05 4.0643e-05 
-2.9781e-05 2.12211e-05 4.07464e-05 
ITEM: TIMESTEP
18
ITEM: NUMBER OF ATOMS
96
ITEM: BOX BOUNDS
0 16.293
0 10.862
0 10.862
ITEM: ATOMS fx fy fz 
-9.79409e-15 -1.82584e-14 3.95833e-05 
-2.55219e-05 -3.17382e-05 1.64734e-06 
2.59285e-05 -3.22258e-05 4.24488e-07 
-2.59285e-05 3.22258e-05 4.24488e-07 
2.55219e-05 3.17382e-05 1.64734e-06 
1.37324e-05 -6.45545e-06 -3.46758e-05 
1.34975e-05 6.67618e-06 -3.47998e-05 
-1.37324e-05 6.45545e-06 -3.46758e-05 
-1.34975e-05 -6.67618e-06 -3.47998e-05 
1.00677e-05 7.86141e-06 -3.21683e-05 
-1.01463e-05 7.71963e-06 -3.24427e-05 
-1.00677e-05 -7.86141e-06 -3.21683e-05 
1.01463e-05 -7.71963e-06 -3.24427e-05 
-3.37075e-06 -7.8e-06 -3.51364e-05 
2.87061e-06 -7.77941e-06 -3.45798e-05 
-2.87061e-06 7.77941e-06 -3.45798e-05 
3.37075e-06 7.8e-06 -3.51364e-05 
1.20028e-05 -7.18688e-06 8.17596e-06 
-1.50259e-05 -7.15184e-06 -2.25527e-05 
2.31185e-06 -7.06421e-06 -3.20919e-05 
-1.18176e-05 -7.84322e-06 7.88623e-06 
-2.06518e-06 -7.21762e-06 -3.20916e-05 
1.54624e-05 -7.12815e-06 -2.25102e-05 
-1.54624e-05 7.12815e-06 -2.25102e-05 
2.06518e-06 7.21762e-06 -3.20916e-05 
1.18176e-05 7.84322e-06 7.88623e-06 
-2.31185e-06 7.06421e-06 -3.20919e-05 
1.50259e-05 7.15184e-06 -2.25527e-05 
-1.20028e-05 7.18688e-06 8.17596e-06 
1.70778e-07 -1.39119e-11 3.33148e-05 
-8.55713e-15 -2.21148e-14 2.28458e-05 
-2.63007e-15 -5.50812e-14 -1.73276e-05 
-1.70778e-07 1.3884e-11 3.33148e-05 
-4.39661e-06 -3.23192e-06 1.96507e-05 
8.81811e-06 -2.99216e-06 1.19002e-05 
-8.93326e-06 1.12181e-06 -1.26925e-05 
-9.03101e-06 -2.91155e-06 1.24491e-05 
4.15034e-06 -2.67102e-06 1.98456e-05 
9.0981e-06 1.15245e-06 -1.24724e-05 
-9.0981e-06 -1.15245e-06 -1.24724e-05 
-4.15034e-06 2.67102e-06 1.98456e-05 
9.03101e-06 2.91155e-06 1.24491e-05 
8.93326e-06 -1.12181e-06 -1.26925e-05 
-8.81811e-06 2.99216e-06 1.19002e-05 
4.39661e-06 3.23192e-06 1.96507e-05 
-1.84694e-05 -3.19998e-05 1.90198e-05 
2.0747e-05 3.23263e-05 1.86089e-05 
-2.0284e-05 3.19923e-05 1.88287e-05 
1.84529e-05 -3.23179e-05 1.84161e-05 
2.0284e-05 -3.19923e-05 1.88287e-05 
-1.84529e-05 3.23179e-05 1.84161e-05 
1.84694e-05 3.19998e-05 1.90198e-05 
-2.0747e-05 -3.23263e-05 1.86089e-05 
-2.18555e-05 3.23283e-06 -1.47326e-06 
2.17773e-05 3.48254e-06 -1.676e-06 
2.18555e-05 -3.23283e-06 -1.47326e-06 
-2.17773e-05 -3.48254e-06 -1.676e-06 
-2.87789e-05 -3.30475e-06 -2.42747e-05 
2.86846e-05 -3.40959e-06 -2.38473e-05 
-2.86846e-05 3.40959e-06 -2.38473e-05 
2.87789e-05 3.30475e-06 -2.42747e-05 
-3.69616e-06 3.14514e-05 -5.78944e-06 
4.6755e-06 -7.87024e-06 1.97711e-05 
4.13272e-06 3.12639e-05 -5.91849e-06 
-4.57465e-06 -8.13496e-06 1.95126e-05 
-4.13272e-06 -3.12639e-05 -5.91849e-06 
3.69616e-06 -3.14514e-05 -5.78944e-06 
9.13378e-08 3.70939e-05 -3.25718e-05 
-8.35898e-08 -3.7094e-05 -3.20374e-05 
-4.70324e-15 -4.38405e-14 -5.88937e-05 
-9.13377e-08 -3.70939e-05 -3.25718e-05 
8.35898e-08 3.7094e-05 -3.20374e-05 
-1.38838e-05 1.50409e-05 -1.03707e-05 
-1.1859e-05 1.50458e-05 1.06289e-05 
1.14052e-05 1.53421e-05 1.12443e-05 
1.34962e-05 1.53462e-05 -1.02963e-05 
1.10109e-13 -2.70272e-14 3.30917e-05 
-8.55641e-15 3.16923e-16 3.30714e-05 
3.35025e-05 -6.05256e-08 6.20134e-06 
-3.35025e-05 6.05255e-08 6.20134e-06 
2.97213e-05 -2.12129e-05 4.07048e-05 
-2.97655e-05 -2.13905e-05 4.0601e-05 
2.0367e-07 1.25708e-09 3.07121e-05 
-2.0367e-07 -1.25712e-09 3.07121e-05 
4.57465e-06 8.13496e-06 1.95126e-05 
-4.6755e-06 7.87024e-06 1.97711e-05 
8.76495e-15 -1.15914e-14 4.05141e-05 
2.49021e-14 2.26458e-15 3.96391e-05 
-1.13519e-06 3.70882e-07 5.06633e-05 
1.13519e-06 -3.70882e-07 5.06633e-05 
-1.34962e-05 -1.53462e-05 -1.02963e-05 
-1.14052e-05 -1.53421e-05 1.12443e-05 
1.1859e-05 -1.50458e-05 1.06289e-05 
1.38838e-05 -1.50409e-05 -1.03707e-05 
2.97655e-05 2.13905e-05 4.0601e-05 
-2.97213e-05 2.12129e-05 4.07048e-05 
