ITEM: TIMESTEP
17
ITEM: NUMBER OF ATOMS
96
ITEM: BOX BOUNDS
0 16.293
0 10.862
0 10.862
ITEM: ATOMS xu yu zu 
1.34585e-15 0 0.00012329 
1.35775 1.35775 1.35787 
1.35775 -1.35775 -1.35763 
-1.35775 1.35775 -1.35763 
-1.35775 -1.35775 1.35787 
-6.62478e-07 -2.7155 -2.71537 
-6.63599e-07 -2.7155 2.71563 
6.62478e-07 2.7155 -2.71537 
6.63599e-07 2.7155 2.71563 
-2.7155 -1.81622e-09 -2.71538 
-2.7155 -1.35103e-09 2.71562 
2.7155 1.81622e-09 -2.71538 
2.7155 1.35103e-09 2.71562 
-2.7155 -2.7155 0.000116224 
-2.7155 2.7155 0.000116201 
2.7155 -2.7155 0.000116201 
2.7155 2.7155 0.000116224 
-4.07325 1.35774 1.35785 
1.35775 -4.07325 1.35787 
1.35775 1.35775 -4.07312 
-4.07325 -1.35776 -1.35765 
1.35775 -1.35775 4.07338 
1.35775 4.07325 -1.35763 
-1.35775 -4.07325 -1.35763 
-1.35775 1.35775 4.07338 
4.07325 1.35776 -1.35765 
-1.35775 -1.35775 -4.07312 
-1.35775 4.07325 1.35787 
4.07325 -1.35774 1.35785 
-5.431 -2.30909e-10 9.11495e-05 
7.88481e-16 -5.431 0.000125109 
2.85999e-16 1.95078e-15 -5.43087 
5.431 2.30909e-10 9.11495e-05 
-4.07325 -4.07326 1.35785 
-4.07325 1.35774 -4.07315 
1.35775 -4.07324 -4.07313 
-4.07325 -1.35776 4.07335 
-4.07325 4.07324 -1.35765 
1.35775 4.07326 4.07337 
-1.35775 -4.07326 4.07337 
4.07325 -4.07324 -1.35765 
4.07325 1.35776 4.07335 
-1.35775 4.07324 -4.07313 
4.07325 -1.35774 -4.07315 
4.07325 4.07326 1.35785 
-5.431 -2.7155 -2.71541 
-5.431 -2.7155 2.71559 
-5.431 2.7155 -2.71541 
-5.431 2.7155 2.71559 
5.431 -2.7155 -2.71541 
5.431 -2.7155 2.71559 
5.431 2.7155 -2.71541 
5.431 2.7155 2.71559 
-2.7155 -5.431 -2.71538 
-2.7155 -5.431 2.71562 
2.7155 -5.431 -2.71538 
2.7155 -5.431 2.71562 
-2.7155 -2.7155 -5.43088 
-2.7155 2.7155 -5.43088 
2.7155 -2.7155 -5.43088 
2.7155 2.7155 -5.43088 
-4.07325 -4.07326 -4.07315 
6.78875 1.35775 1.35783 
-4.07325 4.07324 4.07335 
6.78875 -1.35775 -1.35767 
4.07325 -4.07324 4.07335 
4.07325 4.07326 -4.07315 
-5.431 -5.431 9.543e-05 
-5.431 3.32551e-06 -5.4309 
4.46081e-16 -5.431 -5.43087 
5.431 -5.431 9.543e-05 
5.431 -3.32551e-06 -5.4309 
6.78875 -4.07325 1.35784 
6.78875 1.35775 -4.07316 
6.78875 -1.35775 4.07334 
6.78875 4.07325 -1.35766 
8.1465 5.6634e-16 -2.71542 
8.1465 5.47298e-17 2.71558 
8.1465 -2.7155 8.28354e-05 
8.1465 2.7155 8.28354e-05 
6.78875 -4.07324 -4.07317 
6.78875 4.07326 4.07333 
-5.431 -5.431 -5.43091 
5.431 -5.431 -5.43091 
9.50425 1.35775 -1.35767 
9.50425 -1.35775 1.35783 
8.1465 -5.431 -2.71542 
8.1465 -5.431 2.71558 
8.1465 -2.7155 -5.43092 
8.1465 2.7155 -5.43092 
9.50425 -4.07325 -1.35766 
9.50425 1.35775 4.07334 
9.50425 -1.35775 -4.07316 
9.50425 4.07325 1.35784 
9.50425 -4.07326 4.07333 
9.50425 4.07324 -4.07317 
ITEM: TIMESTEP
18
ITEM: NUMBER OF ATOMS
96
ITEM: BOX BOUNDS
0 16.293
0 10.862
0 10.862
ITEM: ATOMS xu yu zu 
1.3442e-15 -2.8922e-18 0.000123297 
1.35775 1.35775 1.35787 
1.35775 -1.35775 -1.35763 
-1.35775 1.35775 -1.35763 
-1.35775 -1.35775 1.35787 
-6.60109e-07 -2.7155 -2.71537 
-6.6127e-07 -2.7155 2.71563 
6.60109e-07 2.7155 -2.71537 
6.6127e-07 2.7155 2.71563 
-2.7155 -4.57101e-10 -2.71538 
-2.7155 -1.64135e-11 2.71562 
2.7155 4.57101e-10 -2.71538 
2.7155 1.64158e-11 2.71562 
-2.7155 -2.7155 0.000116217 
-2.7155 2.7155 0.000116195 
2.7155 -2.7155 0.000116195 
2.7155 2.7155 0.000116217 
-4.07325 1.35774 1.35785 
1.35775 -4.07325 1.35787 
1.35775 1.35775 -4.07312 
-4.07325 -1.35776 -1.35765 
1.35775 -1.35775 4.07338 
1.35775 4.07325 -1.35763 
-1.35775 -4.07325 -1.35763 
-1.35775 1.35775 4.07338 
4.07325 1.35776 -1.35765 
-1.35775 -1.35775 -4.07312 
-1.35775 4.07325 1.35787 
4.07325 -1.35774 1.35785 
-5.431 -2.3091e-10 9.11552e-05 
7.86161e-16 -5.431 0.000125113 
2.8636e-16 1.94069e-15 -5.43087 
5.431 2.30912e-10 9.11552e-05 
-4.07325 -4.07326 1.35785 
-4.07325 1.35774 -4.07315 
1.35775 -4.07324 -4.07313 
-4.07325 -1.35776 4.07335 
-4.07325 4.07324 -1.35765 
1.35775 4.07326 4.07337 
-1.35775 -4.07326 4.07337 
4.07325 -4.07324 -1.35765 
4.07325 1.35776 4.07335 
-1.35775 4.07324 -4.07313 
4.07325 -1.35774 -4.07315 
4.07325 4.07326 1.35785 
-5.431 -2.7155 -2.71541 
-5.431 -2.7155 2.71559 
-5.431 2.7155 -2.71541 
-5.431 2.7155 2.71559 
5.431 -2.7155 -2.71541 
5.431 -2.7155 2.71559 
5.431 2.7155 -2.71541 
5.431 2.7155 2.71559 
-2.7155 -5.431 -2.71538 
-2.7155 -5.431 2.71562 
2.7155 -5.431 -2.71538 
2.7155 -5.431 2.71562 
-2.7155 -2.7155 -5.43088 
-2.7155 2.7155 -5.43088 
2.7155 -2.7155 -5.43088 
2.7155 2.7155 -5.43088 
-4.07325 -4.07326 -4.07315 
6.78875 1.35775 1.35783 
-4.07325 4.07324 4.07335 
6.78875 -1.35775 -1.35767 
4.07325 -4.07324 4.07335 
4.07325 4.07326 -4.07315 
-5.431 -5.431 9.54244e-05 
-5.431 3.31912e-06 -5.4309 
4.46924e-16 -5.431 -5.43087 
5.431 -5.431 9.54244e-05 
5.431 -3.31912e-06 -5.4309 
6.78875 -4.07325 1.35784 
6.78875 1.35775 -4.07316 
6.78875 -1.35775 4.07334 
6.78875 4.07325 -1.35766 
8.1465 5.62141e-16 -2.71542 
8.1465 5.4994e-17 2.71558 
8.1465 -2.7155 8.28364e-05 
8.1465 2.7155 8.28364e-05 
6.78875 -4.07324 -4.07317 
6.78875 4.07326 4.07333 
-5.431 -5.431 -5.43091 
5.431 -5.431 -5.43091 
9.50425 1.35775 -1.35767 
9.50425 -1.35775 1.35783 
8.1465 -5.431 -2.71542 
8.1465 -5.431 2.71558 
8.1465 -2.7155 -5.43092 
8.1465 2.7155 -5.43092 
9.50425 -4.07325 -1.35766 
9.50425 1.35775 4.07334 
9.50425 -1.35775 -4.07316 
9.50425 4.07325 1.35784 
9.50425 -4.07326 4.07333 
9.50425 4.07324 -4.07317 
