ITEM: TIMESTEP
17
ITEM: NUMBER OF ATOMS
96
ITEM: BOX BOUNDS
0 16.293
0 10.862
0 10.862
ITEM: ATOMS fx fy fz 
-1.36094e-14 -1.0352e-14 3.99866e-05 
-2.57357e-05 -3.19546e-05 1.59905e-06 
2.6086e-05 -3.24419e-05 3.72077e-07 
-2.6086e-05 3.24419e-05 3.72077e-07 
2.57357e-05 3.19546e-05 1.59905e-06 
1.37925e-05 -6.46975e-06 -3.4734e-05 
1.35569e-05 6.69308e-06 -3.48597e-05 
-1.37925e-05 6.46975e-06 -3.4734e-05 
-1.35569e-05 -6.69308e-06 -3.48597e-05 
9.60057e-06 7.94011e-06 -3.22792e-05 
-1.05522e-05 7.79752e-06 -3.25548e-05 
-9.60057e-06 -7.94011e-06 -3.22792e-05 
1.05522e-05 -7.79752e-06 -3.25548e-05 
-3.89147e-06 -7.87854e-06 -3.53251e-05 
2.51521e-06 -7.85747e-06 -3.47659e-05 
-2.51521e-06 7.85747e-06 -3.47659e-05 
3.89147e-06 7.87854e-06 -3.53251e-05 
1.1922e-05 -7.27798e-06 8.24943e-06 
-1.52124e-05 -7.22477e-06 -2.26504e-05 
2.20043e-06 -7.13727e-06 -3.21195e-05 
-1.18305e-05 -7.93666e-06 7.9595e-06 
-2.00932e-06 -7.29109e-06 -3.21202e-05 
1.55949e-05 -7.20117e-06 -2.2608e-05 
-1.55949e-05 7.20117e-06 -2.2608e-05 
2.00932e-06 7.29109e-06 -3.21202e-05 
1.18305e-05 7.93666e-06 7.9595e-06 
-2.20043e-06 7.13727e-06 -3.21195e-05 
1.52124e-05 7.22477e-06 -2.26504e-05 
-1.1922e-05 7.27798e-06 8.24943e-06 
5.95438e-07 4.12801e-11 3.33733e-05 
6.28493e-15 -6.66794e-15 2.31759e-05 
4.7866e-15 -1.38113e-14 -1.7139e-05 
-5.95438e-07 -4.12711e-11 3.33733e-05 
-4.51792e-06 -3.26625e-06 1.96359e-05 
8.89373e-06 -3.02527e-06 1.1955e-05 
-9.00376e-06 1.21963e-06 -1.26686e-05 
-9.20006e-06 -2.94667e-06 1.25047e-05 
4.17819e-06 -2.70444e-06 1.98302e-05 
9.11336e-06 1.25101e-06 -1.24466e-05 
-9.11336e-06 -1.25101e-06 -1.24466e-05 
-4.17819e-06 2.70444e-06 1.98302e-05 
9.20006e-06 2.94667e-06 1.25047e-05 
9.00376e-06 -1.21963e-06 -1.26686e-05 
-8.89373e-06 3.02527e-06 1.1955e-05 
4.51792e-06 3.26625e-06 1.96359e-05 
-1.80589e-05 -3.19941e-05 1.90904e-05 
2.12572e-05 3.23217e-05 1.86782e-05 
-1.99437e-05 3.19865e-05 1.88982e-05 
1.88921e-05 -3.23133e-05 1.84841e-05 
1.99437e-05 -3.19865e-05 1.88982e-05 
-1.88921e-05 3.23133e-05 1.84841e-05 
1.80589e-05 3.19941e-05 1.90904e-05 
-2.12572e-05 -3.23217e-05 1.86782e-05 
-2.23101e-05 3.29875e-06 -1.37325e-06 
2.13565e-05 3.5484e-06 -1.57756e-06 
2.23101e-05 -3.29875e-06 -1.37325e-06 
-2.13565e-05 -3.5484e-06 -1.57756e-06 
-2.92822e-05 -3.3704e-06 -2.42925e-05 
2.83118e-05 -3.47581e-06 -2.38638e-05 
-2.83118e-05 3.47581e-06 -2.38638e-05 
2.92822e-05 3.3704e-06 -2.42925e-05 
-3.67488e-06 3.14858e-05 -5.83431e-06 
4.59921e-06 -7.91982e-06 1.97318e-05 
4.01829e-06 3.12995e-05 -5.96167e-06 
-4.6665e-06 -8.18472e-06 1.94731e-05 
-4.01829e-06 -3.12995e-05 -5.96167e-06 
3.67488e-06 -3.14858e-05 -5.83431e-06 
5.16772e-07 3.7192e-05 -3.25375e-05 
3.40494e-07 -3.7192e-05 -3.20371e-05 
-3.0491e-14 -2.5917e-15 -5.90056e-05 
-5.16772e-07 -3.7192e-05 -3.25375e-05 
-3.40494e-07 3.7192e-05 -3.20371e-05 
-1.39687e-05 1.50593e-05 -1.03631e-05 
-1.19357e-05 1.50644e-05 1.05104e-05 
1.13132e-05 1.53606e-05 1.11277e-05 
1.34129e-05 1.53648e-05 -1.02903e-05 
-1.95413e-14 8.71184e-15 3.31897e-05 
3.96291e-15 -6.24073e-15 3.31683e-05 
3.35051e-05 -6.02243e-08 6.20687e-06 
-3.35051e-05 6.02244e-08 6.20687e-06 
2.96524e-05 -2.11709e-05 4.06769e-05 
-2.98658e-05 -2.13473e-05 4.05744e-05 
6.28527e-07 1.41727e-09 3.06676e-05 
-6.28527e-07 -1.4172e-09 3.06676e-05 
4.6665e-06 8.18472e-06 1.94731e-05 
-4.59921e-06 7.91982e-06 1.97318e-05 
1.25007e-14 1.18779e-14 4.06018e-05 
8.38417e-14 2.49558e-14 3.97246e-05 
-1.1027e-06 3.7177e-07 5.08132e-05 
1.1027e-06 -3.7177e-07 5.08132e-05 
-1.34129e-05 -1.53648e-05 -1.02903e-05 
-1.13132e-05 -1.53606e-05 1.11277e-05 
1.19357e-05 -1.50644e-05 1.05104e-05 
1.39687e-05 -1.50593e-05 -1.03631e-05 
2.98658e-05 2.13473e-05 4.05744e-05 
-2.96524e-05 2.11709e-05 4.06769e-05 
ITEM: TIMESTEP
18
ITEM: NUMBER OF ATOMS
96
ITEM: BOX BOUNDS
0 16.293
0 10.862
0 10.862
ITEM: ATOMS fx fy fz 
-1.3158e-14 -1.98581e-14 3.97539e-05 
-2.5607e-05 -3.18232e-05 1.54986e-06 
2.59584e-05 -3.23095e-05 3.27959e-07 
-2.59584e-05 3.23095e-05 3.27959e-07 
2.5607e-05 3.18232e-05 1.54986e-06 
1.37314e-05 -6.43402e-06 -3.46767e-05 
1.34973e-05 6.65536e-06 -3.4801e-05 
-1.37314e-05 6.43402e-06 -3.46767e-05 
-1.34973e-05 -6.65536e-06 -3.4801e-05 
9.57498e-06 7.88899e-06 -3.21634e-05 
-1.05248e-05 7.74727e-06 -3.24367e-05 
-9.57498e-06 -7.88899e-06 -3.21634e-05 
1.05248e-05 -7.74727e-06 -3.24367e-05 
-3.85749e-06 -7.82819e-06 -3.51748e-05 
2.48523e-06 -7.80645e-06 -3.46184e-05 
-2.48523e-06 7.80645e-06 -3.46184e-05 
3.85749e-06 7.82819e-06 -3.51748e-05 
1.19152e-05 -7.22726e-06 8.18214e-06 
-1.51283e-05 -7.17809e-06 -2.26353e-05 
2.20067e-06 -7.09097e-06 -3.21119e-05 
-1.1824e-05 -7.883e-06 7.89317e-06 
-2.00847e-06 -7.24417e-06 -3.21127e-05 
1.55108e-05 -7.15464e-06 -2.25933e-05 
-1.55108e-05 7.15464e-06 -2.25933e-05 
2.00847e-06 7.24417e-06 -3.21127e-05 
1.1824e-05 7.883e-06 7.89317e-06 
-2.20067e-06 7.09097e-06 -3.21119e-05 
1.51283e-05 7.17809e-06 -2.26353e-05 
-1.19152e-05 7.22726e-06 8.18214e-06 
5.93844e-07 4.24186e-11 3.33202e-05 
3.85027e-15 -1.08295e-14 2.29946e-05 
3.76523e-15 -8.8917e-15 -1.72018e-05 
-5.93844e-07 -4.24114e-11 3.33202e-05 
-4.48548e-06 -3.21545e-06 1.95767e-05 
8.80836e-06 -2.97581e-06 1.18569e-05 
-8.96833e-06 1.14511e-06 -1.27084e-05 
-9.11387e-06 -2.8966e-06 1.24046e-05 
4.14676e-06 -2.65571e-06 1.97712e-05 
9.07887e-06 1.1763e-06 -1.24876e-05 
-9.07887e-06 -1.1763e-06 -1.24876e-05 
-4.14676e-06 2.65571e-06 1.97712e-05 
9.11387e-06 2.8966e-06 1.24046e-05 
8.96833e-06 -1.14511e-06 -1.27084e-05 
-8.80836e-06 2.97581e-06 1.18569e-05 
4.48548e-06 3.21545e-06 1.95767e-05 
-1.80226e-05 -3.19164e-05 1.90659e-05 
2.11952e-05 3.22427e-05 1.86555e-05 
-1.98851e-05 3.19088e-05 1.88746e-05 
1.8853e-05 -3.22343e-05 1.84624e-05 
1.98851e-05 -3.19088e-05 1.88746e-05 
-1.8853e-05 3.22343e-05 1.84624e-05 
1.80226e-05 3.19164e-05 1.90659e-05 
-2.11952e-05 -3.22427e-05 1.86555e-05 
-2.22741e-05 3.27986e-06 -1.41657e-06 
2.13236e-05 3.52889e-06 -1.62016e-06 
2.22741e-05 -3.27986e-06 -1.41657e-06 
-2.13236e-05 -3.52889e-06 -1.62016e-06 
-2.91916e-05 -3.35132e-06 -2.42567e-05 
2.82243e-05 -3.45649e-06 -2.38294e-05 
-2.82243e-05 3.45649e-06 -2.38294e-05 
2.91916e-05 3.35132e-06 -2.42567e-05 
-3.68581e-06 3.14063e-05 -5.79847e-06 
4.57943e-06 -7.9196e-06 1.97543e-05 
4.02838e-06 3.12198e-05 -5.92621e-06 
-4.64803e-06 -8.18348e-06 1.94968e-05 
-4.02838e-06 -3.12198e-05 -5.92621e-06 
3.68581e-06 -3.14063e-05 -5.79847e-06 
5.15043e-07 3.70886e-05 -3.24236e-05 
3.39755e-07 -3.70887e-05 -3.18948e-05 
-2.77636e-14 -3.19026e-17 -5.88739e-05 
-5.15043e-07 -3.70886e-05 -3.24236e-05 
-3.39755e-07 3.70887e-05 -3.18948e-05 
-1.39572e-05 1.50086e-05 -1.03184e-05 
-1.19155e-05 1.50133e-05 1.05594e-05 
1.12932e-05 1.53091e-05 1.11741e-05 
1.34013e-05 1.53129e-05 -1.02448e-05 
-1.91603e-14 7.58979e-15 3.31163e-05 
3.29293e-15 -7.77296e-15 3.30964e-05 
3.34328e-05 -6.06064e-08 6.20617e-06 
-3.34328e-05 6.06065e-08 6.20617e-06 
2.95924e-05 -2.11628e-05 4.06356e-05 
-2.98065e-05 -2.13393e-05 4.05327e-05 
6.269e-07 1.41463e-09 3.06635e-05 
-6.269e-07 -1.41457e-09 3.06635e-05 
4.64803e-06 8.18348e-06 1.94968e-05 
-4.57943e-06 7.9196e-06 1.97543e-05 
3.12989e-15 1.42058e-14 4.05486e-05 
8.0068e-14 2.86715e-14 3.9674e-05 
-1.10649e-06 3.7081e-07 5.07312e-05 
1.10649e-06 -3.7081e-07 5.07312e-05 
-1.34013e-05 -1.53129e-05 -1.02448e-05 
-1.12932e-05 -1.53091e-05 1.11741e-05 
1.19155e-05 -1.50133e-05 1.05594e-05 
1.39572e-05 -1.50086e-05 -1.03184e-05 
2.98065e-05 2.13393e-05 4.05327e-05 
-2.95924e-05 2.11628e-05 4.06356e-05 
