ITEM: TIMESTEP
17
ITEM: NUMBER OF ATOMS
96
ITEM: BOX BOUNDS
0 16.293
0 10.862
0 10.862
ITEM: ATOMS xu yu zu 
5.35079e-16 2.0674e-16 0.000123304 
1.35775 1.35775 1.35787 
1.35775 -1.35775 -1.35763 
-1.35775 1.35775 -1.35763 
-1.35775 -1.35775 1.35787 
-6.62343e-07 -2.7155 -2.71537 
-6.63481e-07 -2.7155 2.71563 
6.62343e-07 2.7155 -2.71537 
6.63481e-07 2.7155 2.71563 
-2.7155 -2.90432e-09 -2.71538 
-2.7155 -2.43349e-09 2.71562 
2.7155 2.90432e-09 -2.71538 
2.7155 2.43349e-09 2.71562 
-2.7155 -2.7155 0.000116232 
-2.7155 2.7155 0.000116209 
2.7155 -2.7155 0.000116209 
2.7155 2.7155 0.000116232 
-4.07325 1.35774 1.35785 
1.35775 -4.07325 1.35787 
1.35775 1.35775 -4.07312 
-4.07325 -1.35776 -1.35765 
1.35775 -1.35775 4.07338 
1.35775 4.07325 -1.35763 
-1.35775 -4.07325 -1.35763 
-1.35775 1.35775 4.07338 
4.07325 1.35776 -1.35765 
-1.35775 -1.35775 -4.07312 
-1.35775 4.07325 1.35787 
4.07325 -1.35774 1.35785 
-5.431 -2.40489e-10 9.1146e-05 
0 -5.431 0.000125116 
0 2.19407e-16 -5.43087 
5.431 2.40489e-10 9.1146e-05 
-4.07325 -4.07326 1.35785 
-4.07325 1.35774 -4.07315 
1.35775 -4.07324 -4.07313 
-4.07325 -1.35776 4.07335 
-4.07325 4.07324 -1.35765 
1.35775 4.07326 4.07337 
-1.35775 -4.07326 4.07337 
4.07325 -4.07324 -1.35765 
4.07325 1.35776 4.07335 
-1.35775 4.07324 -4.07313 
4.07325 -1.35774 -4.07315 
4.07325 4.07326 1.35785 
-5.431 -2.7155 -2.71541 
-5.431 -2.7155 2.71559 
-5.431 2.7155 -2.71541 
-5.431 2.7155 2.71559 
5.431 -2.7155 -2.71541 
5.431 -2.7155 2.71559 
5.431 2.7155 -2.71541 
5.431 2.7155 2.71559 
-2.7155 -5.431 -2.71538 
-2.7155 -5.431 2.71562 
2.7155 -5.431 -2.71538 
2.7155 -5.431 2.71562 
-2.7155 -2.7155 -5.43088 
-2.7155 2.7155 -5.43088 
2.7155 -2.7155 -5.43088 
2.7155 2.7155 -5.43088 
-4.07325 -4.07326 -4.07315 
6.78875 1.35775 1.35783 
-4.07325 4.07324 4.07335 
6.78875 -1.35775 -1.35767 
4.07325 -4.07324 4.07335 
4.07325 4.07326 -4.07315 
-5.431 -5.431 9.54143e-05 
-5.431 3.32286e-06 -5.4309 
1.0991e-15 -5.431 -5.43087 
5.431 -5.431 9.54143e-05 
5.431 -3.32286e-06 -5.4309 
6.78875 -4.07325 1.35784 
6.78875 1.35775 -4.07316 
6.78875 -1.35775 4.07334 
6.78875 4.07325 -1.35766 
8.1465 0 -2.71542 
8.1465 3.05074e-16 2.71558 
8.1465 -2.7155 8.28207e-05 
8.1465 2.7155 8.28207e-05 
6.78875 -4.07324 -4.07317 
6.78875 4.07326 4.07333 
-5.431 -5.431 -5.43091 
5.431 -5.431 -5.43091 
9.50425 1.35775 -1.35767 
9.50425 -1.35775 1.35783 
8.1465 -5.431 -2.71542 
8.1465 -5.431 2.71558 
8.1465 -2.7155 -5.43092 
8.1465 2.7155 -5.43092 
9.50425 -4.07325 -1.35766 
9.50425 1.35775 4.07334 
9.50425 -1.35775 -4.07316 
9.50425 4.07325 1.35784 
9.50425 -4.07326 4.07333 
9.50425 4.07324 -4.07317 
ITEM: TIMESTEP
18
ITEM: NUMBER OF ATOMS
96
ITEM: BOX BOUNDS
0 16.293
0 10.862
0 10.862
ITEM: ATOMS xu yu zu 
5.32741e-16 2.04962e-16 0.00012331 
1.35775 1.35775 1.35787 
1.35775 -1.35775 -1.35763 
-1.35775 1.35775 -1.35763 
-1.35775 -1.35775 1.35787 
-6.59973e-07 -2.7155 -2.71537 
-6.61153e-07 -2.7155 2.71563 
6.59973e-07 2.7155 -2.71537 
6.61153e-07 2.7155 2.71563 
-2.7155 -1.54044e-09 -2.71538 
-2.7155 -1.0941e-09 2.71562 
2.7155 1.54044e-09 -2.71538 
2.7155 1.0941e-09 2.71562 
-2.7155 -2.7155 0.000116226 
-2.7155 2.7155 0.000116203 
2.7155 -2.7155 0.000116203 
2.7155 2.7155 0.000116226 
-4.07325 1.35774 1.35785 
1.35775 -4.07325 1.35787 
1.35775 1.35775 -4.07312 
-4.07325 -1.35776 -1.35765 
1.35775 -1.35775 4.07338 
1.35775 4.07325 -1.35763 
-1.35775 -4.07325 -1.35763 
-1.35775 1.35775 4.07338 
4.07325 1.35776 -1.35765 
-1.35775 -1.35775 -4.07312 
-1.35775 4.07325 1.35787 
4.07325 -1.35774 1.35785 
-5.431 -2.40481e-10 9.11517e-05 
1.07957e-18 -5.431 0.00012512 
8.22197e-19 2.17035e-16 -5.43087 
5.431 2.40482e-10 9.11517e-05 
-4.07325 -4.07326 1.35785 
-4.07325 1.35774 -4.07315 
1.35775 -4.07324 -4.07313 
-4.07325 -1.35776 4.07335 
-4.07325 4.07324 -1.35765 
1.35775 4.07326 4.07337 
-1.35775 -4.07326 4.07337 
4.07325 -4.07324 -1.35765 
4.07325 1.35776 4.07335 
-1.35775 4.07324 -4.07313 
4.07325 -1.35774 -4.07315 
4.07325 4.07326 1.35785 
-5.431 -2.7155 -2.71541 
-5.431 -2.7155 2.71559 
-5.431 2.7155 -2.71541 
-5.431 2.7155 2.71559 
5.431 -2.7155 -2.71541 
5.431 -2.7155 2.71559 
5.431 2.7155 -2.71541 
5.431 2.7155 2.71559 
-2.7155 -5.431 -2.71538 
-2.7155 -5.431 2.71562 
2.7155 -5.431 -2.71538 
2.7155 -5.431 2.71562 
-2.7155 -2.7155 -5.43088 
-2.7155 2.7155 -5.43088 
2.7155 -2.7155 -5.43088 
2.7155 2.7155 -5.43088 
-4.07325 -4.07326 -4.07315 
6.78875 1.35775 1.35783 
-4.07325 4.07324 4.07335 
6.78875 -1.35775 -1.35767 
4.07325 -4.07324 4.07335 
4.07325 4.07326 -4.07315 
-5.431 -5.431 9.54087e-05 
-5.431 3.31647e-06 -5.4309 
1.09386e-15 -5.431 -5.43087 
5.431 -5.431 9.54087e-05 
5.431 -3.31647e-06 -5.4309 
6.78875 -4.07325 1.35784 
6.78875 1.35775 -4.07316 
6.78875 -1.35775 4.07334 
6.78875 4.07325 -1.35766 
8.1465 1.49644e-18 -2.71542 
8.1465 3.04002e-16 2.71558 
8.1465 -2.7155 8.28217e-05 
8.1465 2.7155 8.28217e-05 
6.78875 -4.07324 -4.07317 
6.78875 4.07326 4.07333 
-5.431 -5.431 -5.43091 
5.431 -5.431 -5.43091 
9.50425 1.35775 -1.35767 
9.50425 -1.35775 1.35783 
8.1465 -5.431 -2.71542 
8.1465 -5.431 2.71558 
8.1465 -2.7155 -5.43092 
8.1465 2.7155 -5.43092 
9.50425 -4.07325 -1.35766 
9.50425 1.35775 4.07334 
9.50425 -1.35775 -4.07316 
9.50425 4.07325 1.35784 
9.50425 -4.07326 4.07333 
9.50425 4.07324 -4.07317 
