ITEM: TIMESTEP
0
ITEM: NUMBER OF ATOMS
96
ITEM: BOX BOUNDS
0 16.293
0 10.862
0 10.862
ITEM: ATOMS x y z 
0 0 0.01 
1.35775 1.35775 1.35775 
1.35775 9.50425 9.50425 
14.9352 1.35775 9.50425 
14.9352 9.50425 1.35775 
0 8.1465 8.1465 
0 8.1465 2.7155 
0 2.7155 8.1465 
0 2.7155 2.7155 
13.5775 0 8.1465 
13.5775 0 2.7155 
2.71551 0 8.1465 
2.71551 0 2.7155 
13.5775 8.1465 0 
13.5775 2.7155 0 
2.71551 8.1465 0 
2.71551 2.7155 0 
12.2197 1.35775 1.35775 
1.35775 6.78875 1.35775 
1.35775 1.35775 6.78875 
12.2197 9.50425 9.50425 
1.35775 9.50425 4.07325 
1.35775 4.07325 9.50425 
14.9352 6.78875 9.50425 
14.9352 1.35775 4.07325 
4.07325 1.35775 9.50425 
14.9352 9.50425 6.78875 
14.9352 4.07325 1.35775 
4.07325 9.50425 1.35775 
10.862 0 0 
0 5.431 0 
0 0 5.431 
5.43099 0 0 
12.2197 6.78875 1.35775 
12.2197 1.35775 6.78875 
1.35775 6.78875 6.78875 
12.2197 9.50425 4.07325 
12.2197 4.07325 9.50425 
1.35775 4.07325 4.07325 
14.9352 6.78875 4.07325 
4.07325 6.78875 9.50425 
4.07325 1.35775 4.07325 
14.9352 4.07325 6.78875 
4.07325 9.50425 6.78875 
4.07325 4.07325 1.35775 
10.862 8.1465 8.1465 
10.862 8.1465 2.7155 
10.862 2.7155 8.1465 
10.862 2.7155 2.7155 
5.43099 8.1465 8.1465 
5.43099 8.1465 2.7155 
5.43099 2.7155 8.1465 
5.43099 2.7155 2.7155 
13.5775 5.431 8.1465 
13.5775 5.431 2.7155 
2.71551 5.431 8.1465 
2.71551 5.431 2.7155 
13.5775 8.1465 5.431 
13.5775 2.7155 5.431 
2.71551 8.1465 5.431 
2.71551 2.7155 5.431 
12.2197 6.78875 6.78875 
6.78876 1.35775 1.35775 
12.2197 4.07325 4.07325 
6.78876 9.50425 9.50425 
4.07325 6.78875 4.07325 
4.07325 4.07325 6.78875 
10.862 5.431 0 
10.862 0 5.431 
0 5.431 5.431 
5.43099 5.431 0 
5.43099 0 5.431 
6.78876 6.78875 1.35775 
6.78876 1.35775 6.78875 
6.78876 9.50425 4.07325 
6.78876 4.07325 9.50425 
8.1465 0 8.1465 
8.1465 0 2.7155 
8.1465 8.1465 0 
8.1465 2.7155 0 
6.78876 6.78875 6.78875 
6.78876 4.07325 4.07325 
10.862 5.431 5.431 
5.43099 5.431 5.431 
9.50424 1.35775 9.50425 
9.50424 9.50425 1.35775 
8.1465 5.431 8.1465 
8.1465 5.431 2.7155 
8.1465 8.1465 5.431 
8.1465 2.7155 5.431 
9.50424 6.78875 9.50425 
9.50424 1.35775 4.07325 
9.50424 9.50425 6.78875 
9.50424 4.07325 1.35775 
9.50424 6.78875 4.07325 
9.50424 4.07325 6.78875 
ITEM: TIMESTEP
17
ITEM: NUMBER OF ATOMS
96
ITEM: BOX BOUNDS
0 16.293
0 10.862
0 10.862
ITEM: ATOMS x y z 
5.35079e-16 2.0674e-16 0.000123304 
1.35775 1.35775 1.35787 
1.35775 9.50425 9.50437 
14.9353 1.35775 9.50437 
14.9352 9.50425 1.35787 
-6.62343e-07 8.1465 8.14663 
-6.63481e-07 8.1465 2.71563 
6.62343e-07 2.7155 8.14663 
6.63481e-07 2.7155 2.71563 
13.5775 -2.90432e-09 8.14662 
13.5775 -2.43349e-09 2.71562 
2.7155 2.90432e-09 8.14662 
2.7155 2.43349e-09 2.71562 
13.5775 8.1465 0.000116232 
13.5775 2.7155 0.000116209 
2.7155 8.1465 0.000116209 
2.7155 2.7155 0.000116232 
12.2197 1.35774 1.35785 
1.35775 6.78875 1.35787 
1.35775 1.35775 6.78888 
12.2198 9.50424 9.50435 
1.35775 9.50425 4.07338 
1.35775 4.07325 9.50437 
14.9353 6.78875 9.50437 
14.9352 1.35775 4.07338 
4.07325 1.35776 9.50435 
14.9353 9.50425 6.78888 
14.9352 4.07325 1.35787 
4.07325 9.50426 1.35785 
10.862 -2.40489e-10 9.1146e-05 
-1.64446e-15 5.431 0.000125116 
-5.63045e-16 2.19407e-16 5.43113 
5.431 2.40489e-10 9.1146e-05 
12.2197 6.78874 1.35785 
12.2198 1.35774 6.78885 
1.35775 6.78876 6.78887 
12.2197 9.50424 4.07335 
12.2198 4.07324 9.50435 
1.35775 4.07326 4.07337 
14.9353 6.78874 4.07337 
4.07325 6.78876 9.50435 
4.07325 1.35776 4.07335 
14.9352 4.07324 6.78887 
4.07325 9.50426 6.78885 
4.07325 4.07326 1.35785 
10.862 8.1465 8.14659 
10.862 8.1465 2.71559 
10.862 2.7155 8.14659 
10.862 2.7155 2.71559 
5.431 8.1465 8.14659 
5.431 8.1465 2.71559 
5.431 2.7155 8.14659 
5.431 2.7155 2.71559 
13.5775 5.431 8.14662 
13.5775 5.431 2.71562 
2.7155 5.431 8.14662 
2.7155 5.431 2.71562 
13.5775 8.1465 5.43112 
13.5775 2.7155 5.43112 
2.7155 8.1465 5.43112 
2.7155 2.7155 5.43112 
12.2198 6.78874 6.78885 
6.78875 1.35775 1.35783 
12.2197 4.07324 4.07335 
6.78875 9.50425 9.50433 
4.07325 6.78876 4.07335 
4.07325 4.07326 6.78885 
10.862 5.431 9.54143e-05 
10.862 3.32286e-06 5.4311 
1.0991e-15 5.431 5.43113 
5.431 5.431 9.54143e-05 
5.431 -3.32286e-06 5.4311 
6.78875 6.78875 1.35784 
6.78875 1.35775 6.78884 
6.78875 9.50425 4.07334 
6.78875 4.07325 9.50434 
8.1465 -4.35292e-16 8.14658 
8.1465 3.05074e-16 2.71558 
8.1465 8.1465 8.28207e-05 
8.1465 2.7155 8.28207e-05 
6.78875 6.78876 6.78883 
6.78875 4.07326 4.07333 
10.862 5.431 5.43109 
5.431 5.431 5.43109 
9.50425 1.35775 9.50433 
9.50425 9.50425 1.35783 
8.1465 5.431 8.14658 
8.1465 5.431 2.71558 
8.1465 8.1465 5.43108 
8.1465 2.7155 5.43108 
9.50425 6.78875 9.50434 
9.50425 1.35775 4.07334 
9.50425 9.50425 6.78884 
9.50425 4.07325 1.35784 
9.50425 6.78874 4.07333 
9.50425 4.07324 6.78883 
