natom:   54
displacements:
- atom:    1
  direction:
    [   1.0000000000000000,  0.0000000000000000,  0.0000000000000000 ]
  displacement:
    [   0.0070710678118655,  0.0070710678118655,  0.0000000000000000 ]
lattice:
- [   15.299999999999999,  15.299999999999999,   0.000000000000000 ]
- [    0.000000000000000,  15.299999999999999,  15.299999999999999 ]
- [   15.299999999999999,   0.000000000000000,  15.299999999999999 ]
atoms:
- symbol: Si # 1
  position: [   0.00000000000000,  0.00000000000000,  0.00000000000000 ]
- symbol: Si # 2
  position: [   0.33333333333333,  0.00000000000000,  0.00000000000000 ]
- symbol: Si # 3
  position: [   0.66666666666667,  0.00000000000000,  0.00000000000000 ]
- symbol: Si # 4
  position: [   0.00000000000000,  0.33333333333333,  0.00000000000000 ]
- symbol: Si # 5
  position: [   0.33333333333333,  0.33333333333333,  0.00000000000000 ]
- symbol: Si # 6
  position: [   0.66666666666667,  0.33333333333333,  0.00000000000000 ]
- symbol: Si # 7
  position: [   0.00000000000000,  0.66666666666667,  0.00000000000000 ]
- symbol: Si # 8
  position: [   0.33333333333333,  0.66666666666667,  0.00000000000000 ]
- symbol: Si # 9
  position: [   0.66666666666667,  0.66666666666667,  0.00000000000000 ]
- symbol: Si # 10
  position: [   0.00000000000000,  0.00000000000000,  0.33333333333333 ]
- symbol: Si # 11
  position: [   0.33333333333333,  0.00000000000000,  0.33333333333333 ]
- symbol: Si # 12
  position: [   0.66666666666667,  0.00000000000000,  0.33333333333333 ]
- symbol: Si # 13
  position: [   0.00000000000000,  0.33333333333333,  0.33333333333333 ]
- symbol: Si # 14
  position: [   0.33333333333333,  0.33333333333333,  0.33333333333333 ]
- symbol: Si # 15
  position: [   0.66666666666667,  0.33333333333333,  0.33333333333333 ]
- symbol: Si # 16
  position: [   0.00000000000000,  0.66666666666667,  0.33333333333333 ]
- symbol: Si # 17
  position: [   0.33333333333333,  0.66666666666667,  0.33333333333333 ]
- symbol: Si # 18
  position: [   0.66666666666667,  0.66666666666667,  0.33333333333333 ]
- symbol: Si # 19
  position: [   0.00000000000000,  0.00000000000000,  0.66666666666667 ]
- symbol: Si # 20
  position: [   0.33333333333333,  0.00000000000000,  0.66666666666667 ]
- symbol: Si # 21
  position: [   0.66666666666667,  0.00000000000000,  0.66666666666667 ]
- symbol: Si # 22
  position: [   0.00000000000000,  0.33333333333333,  0.66666666666667 ]
- symbol: Si # 23
  position: [   0.33333333333333,  0.33333333333333,  0.66666666666667 ]
- symbol: Si # 24
  position: [   0.66666666666667,  0.33333333333333,  0.66666666666667 ]
- symbol: Si # 25
  position: [   0.00000000000000,  0.66666666666667,  0.66666666666667 ]
- symbol: Si # 26
  position: [   0.33333333333333,  0.66666666666667,  0.66666666666667 ]
- symbol: Si # 27
  position: [   0.66666666666667,  0.66666666666667,  0.66666666666667 ]
- symbol: Si # 28
  position: [   0.08333333333333,  0.08333333333333,  0.08333333333333 ]
- symbol: Si # 29
  position: [   0.41666666666667,  0.08333333333333,  0.08333333333333 ]
- symbol: Si # 30
  position: [   0.75000000000000,  0.08333333333333,  0.08333333333333 ]
- symbol: Si # 31
  position: [   0.08333333333333,  0.41666666666667,  0.08333333333333 ]
- symbol: Si # 32
  position: [   0.41666666666667,  0.41666666666667,  0.08333333333333 ]
- symbol: Si # 33
  position: [   0.75000000000000,  0.41666666666667,  0.08333333333333 ]
- symbol: Si # 34
  position: [   0.08333333333333,  0.75000000000000,  0.08333333333333 ]
- symbol: Si # 35
  position: [   0.41666666666667,  0.75000000000000,  0.08333333333333 ]
- symbol: Si # 36
  position: [   0.75000000000000,  0.75000000000000,  0.08333333333333 ]
- symbol: Si # 37
  position: [   0.08333333333333,  0.08333333333333,  0.41666666666667 ]
- symbol: Si # 38
  position: [   0.41666666666667,  0.08333333333333,  0.41666666666667 ]
- symbol: Si # 39
  position: [   0.75000000000000,  0.08333333333333,  0.41666666666667 ]
- symbol: Si # 40
  position: [   0.08333333333333,  0.41666666666667,  0.41666666666667 ]
- symbol: Si # 41
  position: [   0.41666666666667,  0.41666666666667,  0.41666666666667 ]
- symbol: Si # 42
  position: [   0.75000000000000,  0.41666666666667,  0.41666666666667 ]
- symbol: Si # 43
  position: [   0.08333333333333,  0.75000000000000,  0.41666666666667 ]
- symbol: Si # 44
  position: [   0.41666666666667,  0.75000000000000,  0.41666666666667 ]
- symbol: Si # 45
  position: [   0.75000000000000,  0.75000000000000,  0.41666666666667 ]
- symbol: Si # 46
  position: [   0.08333333333333,  0.08333333333333,  0.75000000000000 ]
- symbol: Si # 47
  position: [   0.41666666666667,  0.08333333333333,  0.75000000000000 ]
- symbol: Si # 48
  position: [   0.75000000000000,  0.08333333333333,  0.75000000000000 ]
- symbol: Si # 49
  position: [   0.08333333333333,  0.41666666666667,  0.75000000000000 ]
- symbol: Si # 50
  position: [   0.41666666666667,  0.41666666666667,  0.75000000000000 ]
- symbol: Si # 51
  position: [   0.75000000000000,  0.41666666666667,  0.75000000000000 ]
- symbol: Si # 52
  position: [   0.08333333333333,  0.75000000000000,  0.75000000000000 ]
- symbol: Si # 53
  position: [   0.41666666666667,  0.75000000000000,  0.75000000000000 ]
- symbol: Si # 54
  position: [   0.75000000000000,  0.75000000000000,  0.75000000000000 ]
