ITEM: TIMESTEP
0
ITEM: NUMBER OF ATOMS
64
ITEM: BOX BOUNDS
0 10.86
0 10.86
0 10.86
ITEM: ATOMS fx fy fz 
2.82875637276116e-08 2.82875637267442e-08 -5.65751396741816e-08 
-5.75258277745953e-07 -5.75258277745953e-07 9.14348060320982e-07 
8.67361737988404e-19 0 0 
0 0 8.67361737988404e-19 
0 0 0 
-1.41437875422062e-08 -2.82875689027254e-08 1.41437844153672e-08 
-4.33680868994202e-19 0 -8.67361737988404e-19 
-4.33680552389611e-19 4.33680552389611e-19 8.67361421383812e-19 
1.41437758964157e-08 -2.82875579738621e-08 1.41437790234453e-08 
-2.82875689031591e-08 -1.41437875417726e-08 1.41437844158009e-08 
0 -8.67361104779221e-19 0 
0 0 -8.67361737988404e-19 
-2.82875579742957e-08 1.41437758970075e-08 1.41437790234453e-08 
-2.79507320066763e-15 2.79507320066763e-15 -3.54424159413865e-06 
-4.33680868994202e-19 -8.67361737988404e-19 4.33680868994202e-19 
-4.33680868994202e-19 -4.33680868994202e-19 4.33680868994202e-19 
0 -8.67361737988404e-19 0 
-4.33681185598793e-19 4.33680552389611e-19 -4.33680552389611e-19 
-3.16604591145022e-25 -3.16604591145022e-25 -8.67361421383812e-19 
0 0 0 
0 0 0 
4.33680868994202e-19 0 0 
5.75258104471583e-07 -5.75258104470715e-07 9.14347865023051e-07 
0 8.67361737988404e-19 0 
0 0 -8.67361737988404e-19 
-5.75258101677672e-07 5.75258101676371e-07 9.1434786222977e-07 
0 0 0 
0 8.67361104779221e-19 0 
0 4.33680868994202e-19 4.33680868994202e-19 
2.8287563149515e-08 -2.8287563150816e-08 -5.65751140813725e-08 
-2.8287563150816e-08 2.8287563149515e-08 -5.65751140813725e-08 
-8.67361104779221e-19 0 -4.33680868994202e-19 
8.67361421383812e-19 4.33680552389611e-19 3.16604591145022e-25 
0 0 8.67361104779221e-19 
-4.33680552389611e-19 4.33680552389611e-19 4.33680552389611e-19 
-4.33680552389611e-19 4.33680552389611e-19 8.67361421383812e-19 
4.33680868994202e-19 4.33680868994202e-19 0 
0 8.67361104779221e-19 0 
-4.33681185598793e-19 -8.67361421383812e-19 4.33680552389611e-19 
-8.67361737988404e-19 -4.33680868994202e-19 4.33680235785019e-19 
0 -8.67361737988404e-19 0 
5.75258277745166e-07 5.75258277745166e-07 9.14348060320012e-07 
4.33680868994202e-19 4.33680868994202e-19 0 
4.33680552389611e-19 4.33680552389611e-19 8.67361421383812e-19 
4.33680868994202e-19 4.33680868994202e-19 -8.67361737988404e-19 
0 0 -6.33209182290044e-25 
-1.41437758961402e-08 2.82875579739675e-08 1.41437790221119e-08 
1.41437875413973e-08 2.82875689041168e-08 1.4143784416598e-08 
-4.33680868994202e-19 4.33680868994202e-19 -8.67361737988404e-19 
-3.16604591145022e-25 8.67361421383812e-19 4.33680552389611e-19 
2.82875579748348e-08 -1.41437758970075e-08 1.41437790229793e-08 
2.82875689035927e-08 1.41437875422062e-08 1.41437844158009e-08 
4.33680868994202e-19 -8.67361737988404e-19 4.33680868994202e-19 
0 8.67361104779221e-19 0 
4.33680552389611e-19 8.67361421383812e-19 4.33680552389611e-19 
0 1.30104197377342e-18 0 
3.16604591145022e-25 8.67361421383812e-19 4.33680552389611e-19 
3.16604591145022e-25 8.67361421383812e-19 4.33680552389611e-19 
-4.33680552389611e-19 4.33680552389611e-19 -4.33681185598793e-19 
4.33680552389611e-19 4.33680552389611e-19 8.67361421383812e-19 
-2.82875637276116e-08 -2.82875637280453e-08 -5.65751396746153e-08 
4.33680868994202e-19 -4.33680868994202e-19 -4.33680868994202e-19 
-4.33680868994202e-19 4.33680868994202e-19 -4.33680868994202e-19 
0 0 8.67361737988404e-19 
ITEM: TIMESTEP
1
ITEM: NUMBER OF ATOMS
64
ITEM: BOX BOUNDS
0 10.86
0 10.86
0 10.86
ITEM: ATOMS fx fy fz 
2.78290809550309e-08 2.78290701776276e-08 -5.60804174500572e-08 
-5.71764362108001e-07 -5.71764362107567e-07 9.08765062291601e-07 
2.79517056202272e-11 -3.3688192860315e-11 -5.26653352005135e-11 
-3.36965737431083e-11 2.7954099538624e-11 -5.26677286852295e-11 
2.79512177292496e-11 2.79512177292496e-11 -1.4475925839974e-10 
-1.46752397556064e-08 -2.78290811831471e-08 1.47702032475376e-08 
-1.03094529441128e-12 6.87560251788621e-13 -7.91901266783412e-16 
1.03104104226589e-12 6.87320956669753e-13 -2.42382376572504e-17 
1.46752316434949e-08 -2.78290721463951e-08 1.47701935968263e-08 
-2.78290867702577e-08 -1.46752397556064e-08 1.4770208836383e-08 
6.8756044525341e-13 -1.03094568133886e-12 -7.91227368761476e-16 
6.87321293629806e-13 1.03104113788333e-12 -2.51534904016637e-17 
-2.78290723461358e-08 1.46752258565683e-08 1.47701937962198e-08 
2.46764414457701e-15 -2.32279473433294e-15 -3.52828240592334e-06 
-1.20129600711394e-16 -1.20563281580388e-16 5.49861501816795e-12 
7.19910242530375e-17 4.08093697723544e-16 8.24722625261676e-12 
4.08093697723544e-16 7.19910242530375e-17 8.24722581893589e-12 
-3.3689326068426e-11 -2.79523505036797e-11 -5.266646146973e-11 
-2.79523513710414e-11 -3.3689326068426e-11 -5.26664619034109e-11 
-3.36892015354525e-11 -3.36892015354525e-11 -3.94196219099734e-11 
2.79540197413441e-11 -2.79532048549913e-11 -1.44761844438762e-10 
2.79524541534071e-11 -6.41411888879784e-11 6.41412127404262e-11 
5.71764185496577e-07 -5.71764185040275e-07 9.08764861689058e-07 
-2.79532039876296e-11 2.7954020175025e-11 -1.44761844438762e-10 
-6.41439822264556e-11 2.79496590802064e-11 6.41440060789034e-11 
-5.71764187435111e-07 5.7176418789091e-07 9.08764864083946e-07 
0 0 0 
3.36890628241382e-11 2.79521126356711e-11 -5.2665622800484e-11 
2.79549057513595e-11 3.36862699193419e-11 -5.26684169367686e-11 
2.78290731869222e-08 -2.78290744561288e-08 -5.60803908418836e-08 
-2.78290744561288e-08 2.78290731869222e-08 -5.60803908418836e-08 
-6.87105529071455e-13 -6.87105207973943e-13 6.87201051446065e-13 
-2.79545700823672e-11 -2.79545705160481e-11 -1.44761628465689e-10 
-6.41409417903366e-11 -2.79519582425292e-11 6.41424514381502e-11 
-2.79519580224926e-11 -6.41409421235642e-11 6.41424517666686e-11 
3.36893212979364e-11 -3.36894644126232e-11 -3.94213780542666e-11 
4.33680868994202e-19 4.33680868994202e-19 0 
3.36909707787451e-11 -2.79497400384108e-11 -5.26628679900498e-11 
-3.36894648463041e-11 3.36893212979364e-11 -3.94213784879475e-11 
-8.67361737988404e-19 -4.33680868994202e-19 4.33680235785019e-19 
-2.79525343843678e-11 3.36937634910772e-11 -5.26656608948461e-11 
5.71764358914399e-07 5.71764358913965e-07 9.08765065030309e-07 
6.41415180517579e-11 2.79523895349576e-11 6.41420202542042e-11 
2.79495953726716e-11 6.41443111377224e-11 6.41448151753695e-11 
1.03077745991498e-12 -6.87320426268068e-13 -1.92554305833426e-16 
-1.03080142494588e-12 -6.87368677427555e-13 -2.63903134809413e-16 
-1.46752328659162e-08 2.7829072121794e-08 1.47701934535632e-08 
1.46752438190553e-08 2.78290838321713e-08 1.47702059208247e-08 
-6.87321293629806e-13 1.03077745991498e-12 -1.91686944095437e-16 
-6.87368998525712e-13 -1.03080087868222e-12 -2.63244287796085e-16 
2.78290721214159e-08 -1.46752328651525e-08 1.47701934531258e-08 
2.78290838325031e-08 1.46752438195343e-08 1.47702059199751e-08 
4.33680868994202e-19 -8.67361737988404e-19 4.33680868994202e-19 
4.76408315741064e-17 -2.87258176067361e-16 -1.37425754271196e-12 
-2.8754707101332e-16 4.79300628385558e-17 -1.3742572534807e-12 
-9.6165864443824e-17 -9.63578857212739e-17 5.49808705384541e-12 
3.16604591145022e-25 8.67361421383812e-19 4.33680552389611e-19 
6.41407097980899e-11 -2.79522127372698e-11 6.41414525825965e-11 
-2.79522138942053e-11 6.41407105379796e-11 6.41414521322655e-11 
3.36895372701064e-11 3.36895372701064e-11 -3.94199088151728e-11 
-2.78290659626833e-08 -2.78290715497939e-08 -5.60804197893318e-08 
-6.87224149115151e-13 6.87248868924684e-13 6.8722458279602e-13 
6.87248868924684e-13 -6.87224149115151e-13 6.8722458279602e-13 
6.87368998525395e-13 6.87369432206264e-13 6.87345579758469e-13 
