ITEM: TIMESTEP
0
ITEM: NUMBER OF ATOMS
64
ITEM: BOX BOUNDS
0 10.86
0 10.86
0 10.86
ITEM: ATOMS fx fy fz 
0 -8.67362e-19 0 
-0.00028284 -0.00028284 -0.00056446 
8.67362e-19 0 0 
0 0 8.67362e-19 
0 0 0 
-4.33681e-19 4.33681e-19 0 
-4.33681e-19 0 -8.67362e-19 
-4.33681e-19 4.33681e-19 8.67361e-19 
-4.33681e-19 4.33681e-19 8.67361e-19 
4.33681e-19 0 0 
0 -8.67361e-19 0 
0 0 -8.67362e-19 
0 0 8.67361e-19 
0.00574385 0.00574385 0.0091336 
-4.33681e-19 -8.67362e-19 4.33681e-19 
-4.33681e-19 -4.33681e-19 4.33681e-19 
0 -8.67362e-19 0 
-0.000282909 0.000282909 -0.000567043 
0.000282909 -0.000282909 -0.000567043 
0 0 0 
0 0 0 
4.33681e-19 0 0 
0.000140855 0.000282327 0.000141167 
0 8.67362e-19 0 
0 0 -8.67362e-19 
0.000282327 0.000140855 0.000141167 
0 0 0 
0 8.67361e-19 0 
0 4.33681e-19 4.33681e-19 
-4.33681e-19 -8.67361e-19 0 
-8.67361e-19 -4.33681e-19 0 
-8.67361e-19 0 -4.33681e-19 
0.00028284 0.00028284 -0.00056446 
0 0 8.67361e-19 
-4.33681e-19 4.33681e-19 4.33681e-19 
-0.000142022 0.000283424 0.000141709 
4.33681e-19 4.33681e-19 0 
-0.000140855 -0.000282327 0.000141167 
0.000283424 -0.000142022 0.000141709 
-8.67362e-19 -4.33681e-19 4.3368e-19 
-0.000282327 -0.000140855 0.000141167 
9.21572e-19 5.42101e-20 -0.0354424 
4.33681e-19 4.33681e-19 0 
4.33681e-19 4.33681e-19 8.67361e-19 
4.33681e-19 4.33681e-19 -8.67362e-19 
0 0 -6.33209e-25 
8.67361e-19 -3.16605e-25 -3.16605e-25 
0.00576133 -0.00576133 0.00915334 
-4.33681e-19 4.33681e-19 -8.67362e-19 
-3.16605e-25 8.67361e-19 4.33681e-19 
8.67361e-19 -3.16605e-25 4.33681e-19 
-0.00576133 0.00576133 0.00915334 
4.33681e-19 -8.67362e-19 4.33681e-19 
0 8.67361e-19 0 
4.33681e-19 8.67361e-19 4.33681e-19 
0 1.30104e-18 0 
3.16605e-25 8.67361e-19 4.33681e-19 
0.000142022 -0.000283424 0.000141709 
-0.000283424 0.000142022 0.000141709 
4.33681e-19 4.33681e-19 8.67361e-19 
-0.00574385 -0.00574385 0.0091336 
4.33681e-19 -4.33681e-19 -4.33681e-19 
-4.33681e-19 4.33681e-19 -4.33681e-19 
0 0 8.67362e-19 
ITEM: TIMESTEP
1
ITEM: NUMBER OF ATOMS
64
ITEM: BOX BOUNDS
0 10.86
0 10.86
0 10.86
ITEM: ATOMS fx fy fz 
-2.79286e-07 -2.79286e-07 -1.44564e-06 
-0.000278261 -0.000278261 -0.000559528 
-1.02634e-08 -6.84289e-09 4.3069e-13 
-6.84289e-09 -1.02634e-08 4.30691e-13 
0 0 5.49797e-08 
3.36677e-07 -2.779e-07 -5.26158e-07 
-4.33681e-19 0 -8.67362e-19 
2.79744e-07 -2.79744e-07 -1.44954e-06 
6.40113e-07 -2.79492e-07 6.40204e-07 
-2.779e-07 3.36677e-07 -5.26158e-07 
0 -8.67361e-19 0 
-2.79744e-07 2.79744e-07 -1.44954e-06 
-2.79492e-07 6.40113e-07 6.40204e-07 
0.00570903 0.00570903 0.0090779 
2.79286e-07 2.79286e-07 -1.44564e-06 
3.37109e-07 2.81134e-07 -5.27164e-07 
2.81134e-07 3.37109e-07 -5.27164e-07 
-0.000278318 0.000278318 -0.000562081 
0.000278318 -0.000278318 -0.000562081 
6.89584e-09 6.89584e-09 6.90246e-09 
1.02634e-08 6.84289e-09 4.30714e-13 
1.03538e-08 -6.90191e-09 -5.65117e-13 
0.000146167 0.00027775 0.000147426 
6.84289e-09 1.02634e-08 4.30714e-13 
-6.90191e-09 1.03538e-08 -5.65118e-13 
0.00027775 0.000146167 0.000147426 
0 0 0 
4.68375e-17 9.57537e-17 8.24692e-08 
9.58435e-17 4.77049e-17 8.24692e-08 
-2.81134e-07 -3.37109e-07 -5.27164e-07 
-3.37109e-07 -2.81134e-07 -5.27164e-07 
-8.67361e-19 0 -4.33681e-19 
0.000278261 0.000278261 -0.000559528 
6.84893e-09 -6.84893e-09 6.8424e-09 
-6.84893e-09 6.84893e-09 6.8424e-09 
-0.00014734 0.000278832 0.000147978 
-1.03538e-08 6.90191e-09 -5.65189e-13 
-0.000146167 -0.00027775 0.000147426 
0.000278832 -0.00014734 0.000147978 
6.90191e-09 -1.03538e-08 -5.65189e-13 
-0.00027775 -0.000146167 0.000147426 
-4.98354e-16 -4.98354e-16 -0.0352828 
2.42861e-17 -4.77049e-17 -1.37448e-08 
-4.76933e-17 2.42849e-17 -1.37448e-08 
2.79492e-07 -6.40113e-07 6.40204e-07 
2.779e-07 -3.36677e-07 -5.26158e-07 
3.36308e-07 -3.36308e-07 -3.93182e-07 
0.00572627 -0.00572627 0.00909739 
-6.40113e-07 2.79492e-07 6.40204e-07 
-3.36677e-07 2.779e-07 -5.26158e-07 
-3.36308e-07 3.36308e-07 -3.93182e-07 
-0.00572627 0.00572627 0.00909739 
4.33681e-19 -8.67362e-19 4.33681e-19 
6.42718e-07 2.79541e-07 6.42626e-07 
2.79541e-07 6.42718e-07 6.42626e-07 
3.3748e-07 3.3748e-07 -3.95362e-07 
-6.89584e-09 -6.89584e-09 6.90246e-09 
0.00014734 -0.000278832 0.000147978 
-0.000278832 0.00014734 0.000147978 
-4.78368e-17 -4.78368e-17 5.49793e-08 
-0.00570903 -0.00570903 0.0090779 
-2.79541e-07 -6.42718e-07 6.42626e-07 
-6.42718e-07 -2.79541e-07 6.42626e-07 
-3.3748e-07 -3.3748e-07 -3.95362e-07 
