# Si primitive	

64 atoms
1 atom types	

0.0 10.86 xlo xhi
0.0 10.86 ylo yhi
0.0 10.86 zlo zhi

#XY XZ YZ xy xz yz
#7.680542 7.680542 4.434362991 xy xz yz

Masses

1 28.0855

Atoms				

  1.000000	  1.000000	  0.000000	  0.000000	  0.000000
  2.000000	  1.000000	  1.357500	  1.357500	  1.357500
  3.000000	  1.000000	  1.357500	 -1.357500	 -1.357500
  4.000000	  1.000000	 -1.357500	  1.357500	 -1.357500
  5.000000	  1.000000	 -1.357500	 -1.357500	  1.357500
  6.000000	  1.000000	  0.000000	  2.715000	  2.715000
  7.000000	  1.000000	  0.000000	 -2.715000	 -2.715000
  8.000000	  1.000000	  0.000000	 -2.715000	  2.715000
  9.000000	  1.000000	  0.000000	  2.715000	 -2.715000
 10.000000	  1.000000	  2.715000	  0.000000	  2.715000
 11.000000	  1.000000	 -2.715000	  0.000000	 -2.715000
 12.000000	  1.000000	 -2.715000	  0.000000	  2.715000
 13.000000	  1.000000	  2.715000	  0.000000	 -2.715000
 14.000000	  1.000000	  2.715000	  2.715000	  0.000020
 15.000000	  1.000000	 -2.715000	 -2.715000	  0.000000
 16.000000	  1.000000	 -2.715000	  2.715000	  0.000000
 17.000000	  1.000000	  2.715000	 -2.715000	  0.000000
 18.000000	  1.000000	 -4.072500	  1.357500	  1.357500
 19.000000	  1.000000	  1.357500	 -4.072500	  1.357500
 20.000000	  1.000000	  1.357500	  1.357500	 -4.072500
 21.000000	  1.000000	 -4.072500	 -1.357500	 -1.357500
 22.000000	  1.000000	  1.357500	 -1.357500	  4.072500
 23.000000	  1.000000	  1.357500	  4.072500	 -1.357500
 24.000000	  1.000000	 -1.357500	 -4.072500	 -1.357500
 25.000000	  1.000000	 -1.357500	  1.357500	  4.072500
 26.000000	  1.000000	  4.072500	  1.357500	 -1.357500
 27.000000	  1.000000	 -1.357500	 -1.357500	 -4.072500
 28.000000	  1.000000	 -1.357500	  4.072500	  1.357500
 29.000000	  1.000000	  4.072500	 -1.357500	  1.357500
 30.000000	  1.000000	 -5.430000	  0.000000	  0.000000
 31.000000	  1.000000	  0.000000	 -5.430000	  0.000000
 32.000000	  1.000000	  0.000000	  0.000000	 -5.430000
 33.000000	  1.000000	 -4.072500	 -4.072500	  1.357500
 34.000000	  1.000000	 -4.072500	  1.357500	 -4.072500
 35.000000	  1.000000	  1.357500	 -4.072500	 -4.072500
 36.000000	  1.000000	  1.357500	  4.072500	  4.072500
 37.000000	  1.000000	 -4.072500	 -1.357500	  4.072500
 38.000000	  1.000000	 -4.072500	  4.072500	 -1.357500
 39.000000	  1.000000	  4.072500	  1.357500	  4.072500
 40.000000	  1.000000	 -1.357500	 -4.072500	  4.072500
 41.000000	  1.000000	  4.072500	 -4.072500	 -1.357500
 42.000000	  1.000000	  4.072500	  4.072500	  1.357500
 43.000000	  1.000000	 -1.357500	  4.072500	 -4.072500
 44.000000	  1.000000	  4.072500	 -1.357500	 -4.072500
 45.000000	  1.000000	 -5.430000	 -2.715000	 -2.715000
 46.000000	  1.000000	 -5.430000	 -2.715000	  2.715000
 47.000000	  1.000000	 -5.430000	  2.715000	 -2.715000
 48.000000	  1.000000	 -5.430000	  2.715000	  2.715000
 49.000000	  1.000000	 -2.715000	 -5.430000	 -2.715000
 50.000000	  1.000000	 -2.715000	 -5.430000	  2.715000
 51.000000	  1.000000	  2.715000	 -5.430000	 -2.715000
 52.000000	  1.000000	  2.715000	 -5.430000	  2.715000
 53.000000	  1.000000	 -2.715000	 -2.715000	 -5.430000
 54.000000	  1.000000	 -2.715000	  2.715000	 -5.430000
 55.000000	  1.000000	  2.715000	 -2.715000	 -5.430000
 56.000000	  1.000000	  2.715000	  2.715000	 -5.430000
 57.000000	  1.000000	 -4.072500	 -4.072500	 -4.072500
 58.000000	  1.000000	 -4.072500	  4.072500	  4.072500
 59.000000	  1.000000	  4.072500	 -4.072500	  4.072500
 60.000000	  1.000000	  4.072500	  4.072500	 -4.072500
 61.000000	  1.000000	 -5.430000	 -5.430000	  0.000000
 62.000000	  1.000000	 -5.430000	  0.000000	 -5.430000
 63.000000	  1.000000	  0.000000	 -5.430000	 -5.430000
 64.000000	  1.000000	 -5.430000	 -5.430000	 -5.430000
