# Si primitive	

64 atoms
1 atom types	

0.0 10.86 xlo xhi
0.0 10.86 ylo yhi
0.0 10.86 zlo zhi

#XY XZ YZ xy xz yz
#7.680542 7.680542 4.434362991 xy xz yz

Masses

1 28.0855

Atoms				

1.00000000	1.00000000	0.00000000	0.00000000	0.00000000
2.00000000	1.00000000	1.35750000	1.35750000	1.35750000
3.00000000	1.00000000	1.35750000	-1.35750000	-1.35750000
4.00000000	1.00000000	-1.35750000	1.35750000	-1.35750000
5.00000000	1.00000000	-1.35750000	-1.35750000	1.35750000
6.00000000	1.00000000	0.00000000	2.71500000	2.71500000
7.00000000	1.00000000	0.00000000	-2.71500000	-2.71500000
8.00000000	1.00000000	0.00000000	-2.71500000	2.71500000
9.00000000	1.00000000	0.00000000	2.71500000	-2.71500000
10.00000000	1.00000000	2.71500000	0.00000000	2.71500000
11.00000000	1.00000000	-2.71500000	0.00000000	-2.71500000
12.00000000	1.00000000	-2.71500000	0.00000000	2.71500000
13.00000000	1.00000000	2.71500000	0.00000000	-2.71500000
14.00000000	1.00000000	2.71500000	2.71500000	0.00000020
15.00000000	1.00000000	-2.71500000	-2.71500000	0.00000000
16.00000000	1.00000000	-2.71500000	2.71500000	0.00000000
17.00000000	1.00000000	2.71500000	-2.71500000	0.00000000
18.00000000	1.00000000	-4.07250000	1.35750000	1.35750000
19.00000000	1.00000000	1.35750000	-4.07250000	1.35750000
20.00000000	1.00000000	1.35750000	1.35750000	-4.07250000
21.00000000	1.00000000	-4.07250000	-1.35750000	-1.35750000
22.00000000	1.00000000	1.35750000	-1.35750000	4.07250000
23.00000000	1.00000000	1.35750000	4.07250000	-1.35750000
24.00000000	1.00000000	-1.35750000	-4.07250000	-1.35750000
25.00000000	1.00000000	-1.35750000	1.35750000	4.07250000
26.00000000	1.00000000	4.07250000	1.35750000	-1.35750000
27.00000000	1.00000000	-1.35750000	-1.35750000	-4.07250000
28.00000000	1.00000000	-1.35750000	4.07250000	1.35750000
29.00000000	1.00000000	4.07250000	-1.35750000	1.35750000
30.00000000	1.00000000	-5.43000000	0.00000000	0.00000000
31.00000000	1.00000000	0.00000000	-5.43000000	0.00000000
32.00000000	1.00000000	0.00000000	0.00000000	-5.43000000
33.00000000	1.00000000	-4.07250000	-4.07250000	1.35750000
34.00000000	1.00000000	-4.07250000	1.35750000	-4.07250000
35.00000000	1.00000000	1.35750000	-4.07250000	-4.07250000
36.00000000	1.00000000	1.35750000	4.07250000	4.07250000
37.00000000	1.00000000	-4.07250000	-1.35750000	4.07250000
38.00000000	1.00000000	-4.07250000	4.07250000	-1.35750000
39.00000000	1.00000000	4.07250000	1.35750000	4.07250000
40.00000000	1.00000000	-1.35750000	-4.07250000	4.07250000
41.00000000	1.00000000	4.07250000	-4.07250000	-1.35750000
42.00000000	1.00000000	4.07250000	4.07250000	1.35750000
43.00000000	1.00000000	-1.35750000	4.07250000	-4.07250000
44.00000000	1.00000000	4.07250000	-1.35750000	-4.07250000
45.00000000	1.00000000	-5.43000000	-2.71500000	-2.71500000
46.00000000	1.00000000	-5.43000000	-2.71500000	2.71500000
47.00000000	1.00000000	-5.43000000	2.71500000	-2.71500000
48.00000000	1.00000000	-5.43000000	2.71500000	2.71500000
49.00000000	1.00000000	-2.71500000	-5.43000000	-2.71500000
50.00000000	1.00000000	-2.71500000	-5.43000000	2.71500000
51.00000000	1.00000000	2.71500000	-5.43000000	-2.71500000
52.00000000	1.00000000	2.71500000	-5.43000000	2.71500000
53.00000000	1.00000000	-2.71500000	-2.71500000	-5.43000000
54.00000000	1.00000000	-2.71500000	2.71500000	-5.43000000
55.00000000	1.00000000	2.71500000	-2.71500000	-5.43000000
56.00000000	1.00000000	2.71500000	2.71500000	-5.43000000
57.00000000	1.00000000	-4.07250000	-4.07250000	-4.07250000
58.00000000	1.00000000	-4.07250000	4.07250000	4.07250000
59.00000000	1.00000000	4.07250000	-4.07250000	4.07250000
60.00000000	1.00000000	4.07250000	4.07250000	-4.07250000
61.00000000	1.00000000	-5.43000000	-5.43000000	0.00000000
62.00000000	1.00000000	-5.43000000	0.00000000	-5.43000000
63.00000000	1.00000000	0.00000000	-5.43000000	-5.43000000
64.00000000	1.00000000	-5.43000000	-5.43000000	-5.43000000
