# Si primitive	

64 atoms
1 atom types	

0.0 10.86 xlo xhi
0.0 10.86 ylo yhi
0.0 10.86 zlo zhi

#XY XZ YZ xy xz yz
#7.680542 7.680542 4.434362991 xy xz yz

Masses

1 28.0855

Atoms				

1.000000000	1.000000000	0.000000000	0.000000000	0.000000000
2.000000000	1.000000000	1.357500000	1.357500000	1.357500000
3.000000000	1.000000000	1.357500000	-1.357500000	-1.357500000
4.000000000	1.000000000	-1.357500000	1.357500000	-1.357500000
5.000000000	1.000000000	-1.357500000	-1.357500000	1.357500000
6.000000000	1.000000000	0.000000000	2.715000000	2.715000000
7.000000000	1.000000000	0.000000000	-2.715000000	-2.715000000
8.000000000	1.000000000	0.000000000	-2.715000000	2.715000000
9.000000000	1.000000000	0.000000000	2.715000000	-2.715000000
10.000000000	1.000000000	2.715000000	0.000000000	2.715000000
11.000000000	1.000000000	-2.715000000	0.000000000	-2.715000000
12.000000000	1.000000000	-2.715000000	0.000000000	2.715000000
13.000000000	1.000000000	2.715000000	0.000000000	-2.715000000
14.000000000	1.000000000	2.715000000	2.715000000	0.000000020
15.000000000	1.000000000	-2.715000000	-2.715000000	0.000000000
16.000000000	1.000000000	-2.715000000	2.715000000	0.000000000
17.000000000	1.000000000	2.715000000	-2.715000000	0.000000000
18.000000000	1.000000000	-4.072500000	1.357500000	1.357500000
19.000000000	1.000000000	1.357500000	-4.072500000	1.357500000
20.000000000	1.000000000	1.357500000	1.357500000	-4.072500000
21.000000000	1.000000000	-4.072500000	-1.357500000	-1.357500000
22.000000000	1.000000000	1.357500000	-1.357500000	4.072500000
23.000000000	1.000000000	1.357500000	4.072500000	-1.357500000
24.000000000	1.000000000	-1.357500000	-4.072500000	-1.357500000
25.000000000	1.000000000	-1.357500000	1.357500000	4.072500000
26.000000000	1.000000000	4.072500000	1.357500000	-1.357500000
27.000000000	1.000000000	-1.357500000	-1.357500000	-4.072500000
28.000000000	1.000000000	-1.357500000	4.072500000	1.357500000
29.000000000	1.000000000	4.072500000	-1.357500000	1.357500000
30.000000000	1.000000000	-5.430000000	0.000000000	0.000000000
31.000000000	1.000000000	0.000000000	-5.430000000	0.000000000
32.000000000	1.000000000	0.000000000	0.000000000	-5.430000000
33.000000000	1.000000000	-4.072500000	-4.072500000	1.357500000
34.000000000	1.000000000	-4.072500000	1.357500000	-4.072500000
35.000000000	1.000000000	1.357500000	-4.072500000	-4.072500000
36.000000000	1.000000000	1.357500000	4.072500000	4.072500000
37.000000000	1.000000000	-4.072500000	-1.357500000	4.072500000
38.000000000	1.000000000	-4.072500000	4.072500000	-1.357500000
39.000000000	1.000000000	4.072500000	1.357500000	4.072500000
40.000000000	1.000000000	-1.357500000	-4.072500000	4.072500000
41.000000000	1.000000000	4.072500000	-4.072500000	-1.357500000
42.000000000	1.000000000	4.072500000	4.072500000	1.357500000
43.000000000	1.000000000	-1.357500000	4.072500000	-4.072500000
44.000000000	1.000000000	4.072500000	-1.357500000	-4.072500000
45.000000000	1.000000000	-5.430000000	-2.715000000	-2.715000000
46.000000000	1.000000000	-5.430000000	-2.715000000	2.715000000
47.000000000	1.000000000	-5.430000000	2.715000000	-2.715000000
48.000000000	1.000000000	-5.430000000	2.715000000	2.715000000
49.000000000	1.000000000	-2.715000000	-5.430000000	-2.715000000
50.000000000	1.000000000	-2.715000000	-5.430000000	2.715000000
51.000000000	1.000000000	2.715000000	-5.430000000	-2.715000000
52.000000000	1.000000000	2.715000000	-5.430000000	2.715000000
53.000000000	1.000000000	-2.715000000	-2.715000000	-5.430000000
54.000000000	1.000000000	-2.715000000	2.715000000	-5.430000000
55.000000000	1.000000000	2.715000000	-2.715000000	-5.430000000
56.000000000	1.000000000	2.715000000	2.715000000	-5.430000000
57.000000000	1.000000000	-4.072500000	-4.072500000	-4.072500000
58.000000000	1.000000000	-4.072500000	4.072500000	4.072500000
59.000000000	1.000000000	4.072500000	-4.072500000	4.072500000
60.000000000	1.000000000	4.072500000	4.072500000	-4.072500000
61.000000000	1.000000000	-5.430000000	-5.430000000	0.000000000
62.000000000	1.000000000	-5.430000000	0.000000000	-5.430000000
63.000000000	1.000000000	0.000000000	-5.430000000	-5.430000000
64.000000000	1.000000000	-5.430000000	-5.430000000	-5.430000000
