# Si primitive	

64 atoms
1 atom types	

0.0 10.86 xlo xhi
0.0 10.86 ylo yhi
0.0 10.86 zlo zhi

#XY XZ YZ xy xz yz
#7.680542 7.680542 4.434362991 xy xz yz

Masses

1 28.0855

Atoms				

    1.0000	    1.0000	    0.0000	    0.0000	    0.0000
    2.0000	    1.0000	    1.3575	    1.3575	    1.3575
    3.0000	    1.0000	    1.3575	   -1.3575	   -1.3575
    4.0000	    1.0000	   -1.3575	    1.3575	   -1.3575
    5.0000	    1.0000	   -1.3575	   -1.3575	    1.3575
    6.0000	    1.0000	    0.0000	    2.7150	    2.7150
    7.0000	    1.0000	    0.0000	   -2.7150	   -2.7150
    8.0000	    1.0000	    0.0000	   -2.7150	    2.7150
    9.0000	    1.0000	    0.0000	    2.7150	   -2.7150
   10.0000	    1.0000	    2.7150	    0.0000	    2.7150
   11.0000	    1.0000	   -2.7150	    0.0000	   -2.7150
   12.0000	    1.0000	   -2.7150	    0.0000	    2.7150
   13.0000	    1.0000	    2.7150	    0.0000	   -2.7150
   14.0000	    1.0000	    2.7150	    2.7150	    0.0000
   15.0000	    1.0000	   -2.7150	   -2.7150	    0.0000
   16.0000	    1.0000	   -2.7150	    2.7150	    0.0000
   17.0000	    1.0000	    2.7150	   -2.7150	    0.0000
   18.0000	    1.0000	   -4.0725	    1.3575	    1.3575
   19.0000	    1.0000	    1.3575	   -4.0725	    1.3575
   20.0000	    1.0000	    1.3575	    1.3575	   -4.0725
   21.0000	    1.0000	   -4.0725	   -1.3575	   -1.3575
   22.0000	    1.0000	    1.3575	   -1.3575	    4.0725
   23.0000	    1.0000	    1.3575	    4.0725	   -1.3575
   24.0000	    1.0000	   -1.3575	   -4.0725	   -1.3575
   25.0000	    1.0000	   -1.3575	    1.3575	    4.0725
   26.0000	    1.0000	    4.0725	    1.3575	   -1.3575
   27.0000	    1.0000	   -1.3575	   -1.3575	   -4.0725
   28.0000	    1.0000	   -1.3575	    4.0725	    1.3575
   29.0000	    1.0000	    4.0725	   -1.3575	    1.3575
   30.0000	    1.0000	   -5.4300	    0.0000	    0.0000
   31.0000	    1.0000	    0.0000	   -5.4300	    0.0000
   32.0000	    1.0000	    0.0000	    0.0000	   -5.4300
   33.0000	    1.0000	   -4.0725	   -4.0725	    1.3575
   34.0000	    1.0000	   -4.0725	    1.3575	   -4.0725
   35.0000	    1.0000	    1.3575	   -4.0725	   -4.0725
   36.0000	    1.0000	    1.3575	    4.0725	    4.0725
   37.0000	    1.0000	   -4.0725	   -1.3575	    4.0725
   38.0000	    1.0000	   -4.0725	    4.0725	   -1.3575
   39.0000	    1.0000	    4.0725	    1.3575	    4.0725
   40.0000	    1.0000	   -1.3575	   -4.0725	    4.0725
   41.0000	    1.0000	    4.0725	   -4.0725	   -1.3575
   42.0000	    1.0000	    4.0725	    4.0725	    1.3595
   43.0000	    1.0000	   -1.3575	    4.0725	   -4.0725
   44.0000	    1.0000	    4.0725	   -1.3575	   -4.0725
   45.0000	    1.0000	   -5.4300	   -2.7150	   -2.7150
   46.0000	    1.0000	   -5.4300	   -2.7150	    2.7150
   47.0000	    1.0000	   -5.4300	    2.7150	   -2.7150
   48.0000	    1.0000	   -5.4300	    2.7150	    2.7150
   49.0000	    1.0000	   -2.7150	   -5.4300	   -2.7150
   50.0000	    1.0000	   -2.7150	   -5.4300	    2.7150
   51.0000	    1.0000	    2.7150	   -5.4300	   -2.7150
   52.0000	    1.0000	    2.7150	   -5.4300	    2.7150
   53.0000	    1.0000	   -2.7150	   -2.7150	   -5.4300
   54.0000	    1.0000	   -2.7150	    2.7150	   -5.4300
   55.0000	    1.0000	    2.7150	   -2.7150	   -5.4300
   56.0000	    1.0000	    2.7150	    2.7150	   -5.4300
   57.0000	    1.0000	   -4.0725	   -4.0725	   -4.0725
   58.0000	    1.0000	   -4.0725	    4.0725	    4.0725
   59.0000	    1.0000	    4.0725	   -4.0725	    4.0725
   60.0000	    1.0000	    4.0725	    4.0725	   -4.0725
   61.0000	    1.0000	   -5.4300	   -5.4300	    0.0000
   62.0000	    1.0000	   -5.4300	    0.0000	   -5.4300
   63.0000	    1.0000	    0.0000	   -5.4300	   -5.4300
   64.0000	    1.0000	   -5.4300	   -5.4300	   -5.4300
