
     Program PHONON v.5.0       starts on 17Jul2012 at 17: 7:53 

     This program is part of the open-source Quantum ESPRESSO suite
     for quantum simulation of materials; please cite
         "P. Giannozzi et al., J. Phys.:Condens. Matter 21 395502 (2009);
          URL http://www.quantum-espresso.org", 
     in publications or presentations arising from this work. More details at
     http://www.quantum-espresso.org/quote.php

     Parallel version (MPI), running on     4 processors
     R & G space division:  proc/pool =    4

     Ultrasoft (Vanderbilt) Pseudopotentials

   Info: using nr1, nr2, nr3 values from input

   Info: using nr1s, nr2s, nr3s values from input

     IMPORTANT: XC functional enforced from input :
     Exchange-correlation      =  SLA  PZ   NOGX NOGC ( 1 1 0 0 0)
     EXX-fraction              =        0.00
     Any further DFT definition will be discarded
     Please, verify this is what you really want

 
     Parallelization info
     --------------------
     sticks:   dense  smooth     PW     G-vecs:    dense   smooth      PW
     Min          70      70     22                  779      779     152
     Max          71      71     23                  780      780     153
     Sum         283     283     91                 3119     3119     609
 


     Dynamical matrices for ( 8, 8, 8,)  uniform grid of q-points
     (  29q-points):
       N         xq(1)         xq(2)         xq(3) 
       1   0.000000000   0.000000000   0.000000000
       2  -0.125000000   0.125000000  -0.125000000
       3  -0.250000000   0.250000000  -0.250000000
       4  -0.375000000   0.375000000  -0.375000000
       5   0.500000000  -0.500000000   0.500000000
       6   0.000000000   0.250000000   0.000000000
       7  -0.125000000   0.375000000  -0.125000000
       8  -0.250000000   0.500000000  -0.250000000
       9   0.625000000  -0.375000000   0.625000000
      10   0.500000000  -0.250000000   0.500000000
      11   0.375000000  -0.125000000   0.375000000
      12   0.250000000   0.000000000   0.250000000
      13   0.000000000   0.500000000   0.000000000
      14  -0.125000000   0.625000000  -0.125000000
      15   0.750000000  -0.250000000   0.750000000
      16   0.625000000  -0.125000000   0.625000000
      17   0.500000000   0.000000000   0.500000000
      18   0.000000000   0.750000000   0.000000000
      19   0.875000000  -0.125000000   0.875000000
      20   0.750000000   0.000000000   0.750000000
      21   0.000000000  -1.000000000   0.000000000
      22  -0.250000000   0.500000000   0.000000000
      23   0.625000000  -0.375000000   0.875000000
      24   0.500000000  -0.250000000   0.750000000
      25   0.750000000  -0.250000000   1.000000000
      26   0.625000000  -0.125000000   0.875000000
      27   0.500000000   0.000000000   0.750000000
      28  -0.250000000  -1.000000000   0.000000000
      29  -0.500000000  -1.000000000   0.000000000

     Calculation of q =    0.0000000   0.0000000   0.0000000

                                                                                

     bravais-lattice index     =            2
     lattice parameter (alat)  =      10.6000  a.u.
     unit-cell volume          =     297.7540 (a.u.)^3
     number of atoms/cell      =            2
     number of atomic types    =            1
     kinetic-energy cut-off    =      18.0000  Ry
     charge density cut-off    =      72.0000  Ry
     convergence threshold     =      1.0E-12
     beta                      =       0.7000
     number of iterations used =            4
     Exchange-correlation      =  SLA  PZ   NOGX NOGC ( 1 1 0 0 0)
     EXX-fraction              =        0.00


     celldm(1)=   10.60000  celldm(2)=    0.00000  celldm(3)=    0.00000
     celldm(4)=    0.00000  celldm(5)=    0.00000  celldm(6)=    0.00000

     crystal axes: (cart. coord. in units of alat)
               a(1) = ( -0.5000  0.0000  0.5000 )  
               a(2) = (  0.0000  0.5000  0.5000 )  
               a(3) = ( -0.5000  0.5000  0.0000 )  

     reciprocal axes: (cart. coord. in units 2 pi/alat)
               b(1) = ( -1.0000 -1.0000  1.0000 )  
               b(2) = (  1.0000  1.0000  1.0000 )  
               b(3) = ( -1.0000  1.0000 -1.0000 )  


     Atoms inside the unit cell: 

   Cartesian axes

     site n.  atom      mass           positions (alat units)
        1        Ge  72.6100   tau( 1) = (    0.00000    0.00000    0.00000  )
        2        Ge  72.6100   tau( 2) = (    0.25000    0.25000    0.25000  )

     Computing dynamical matrix for 
                    q = (   0.0000000   0.0000000   0.0000000 )
 
     49 Sym.Ops. (with q -> -q+G )


     G cutoff =  204.9201  (    779 G-vectors)     FFT grid: ( 24, 24, 24)
     number of k points=    29

     PseudoPot. # 1 for Ge read from file:
     /home/ywg/QuantumEspresso/pseudo/Ge.pz-bhs.UPF
     MD5 check sum: bb78d5f8e158bcc491d4c705bdf69fa7
     Pseudo is Norm-conserving, Zval =  4.0
     Generated by new atomic code, or converted to UPF format
     Using radial grid of  291 points,  2 beta functions with: 
                l(1) =   0
                l(2) =   1


     Electric field:
     Dielectric constant
     Born effective charges in two ways 


     Atomic displacements:
     There are   2 irreducible representations

     Representation     1      3 modes -T_2g G_25' G_5+ To be done

     Representation     2      3 modes -T_1u G_15  G_4- To be done



     Alpha used in Ewald sum =   0.7000
     PHONON       :     0.64s CPU         0.69s WALL


     Electric Fields Calculation

      iter #   1 total cpu time :     3.6 secs   av.it.:   6.2
      thresh= 0.100E-01 alpha_mix =  0.700 |ddv_scf|^2 =  0.292E-06

      iter #   2 total cpu time :     4.6 secs   av.it.:   9.7
      thresh= 0.540E-04 alpha_mix =  0.700 |ddv_scf|^2 =  0.706E-08

      iter #   3 total cpu time :     5.5 secs   av.it.:   9.6
      thresh= 0.840E-05 alpha_mix =  0.700 |ddv_scf|^2 =  0.299E-09

      iter #   4 total cpu time :     8.2 secs   av.it.:  10.1
      thresh= 0.173E-05 alpha_mix =  0.700 |ddv_scf|^2 =  0.154E-11

      iter #   5 total cpu time :     9.1 secs   av.it.:   9.6
      thresh= 0.124E-06 alpha_mix =  0.700 |ddv_scf|^2 =  0.188E-15

     End of electric fields calculation

          Dielectric constant in cartesian axis 

          (      25.166679849       0.000000000       0.000000000 )
          (       0.000000000      25.166679849       0.000000000 )
          (       0.000000000       0.000000000      25.166679849 )

          Effective charges (d Force / dE) in cartesian axis

           atom      1   Ge 
      Ex  (       -0.20906        0.00000        0.00000 )
      Ey  (        0.00000       -0.20906        0.00000 )
      Ez  (        0.00000        0.00000       -0.20906 )
           atom      2   Ge 
      Ex  (       -0.20906        0.00000        0.00000 )
      Ey  (        0.00000       -0.20906        0.00000 )
      Ez  (        0.00000        0.00000       -0.20906 )


     Representation #  1 modes #   1  2  3

     Self-consistent Calculation

      iter #   1 total cpu time :     9.9 secs   av.it.:   5.4
      thresh= 0.100E-01 alpha_mix =  0.700 |ddv_scf|^2 =  0.810E-07

      iter #   2 total cpu time :    10.9 secs   av.it.:  10.0
      thresh= 0.285E-04 alpha_mix =  0.700 |ddv_scf|^2 =  0.430E-09

      iter #   3 total cpu time :    12.3 secs   av.it.:  10.0
      thresh= 0.207E-05 alpha_mix =  0.700 |ddv_scf|^2 =  0.312E-11

      iter #   4 total cpu time :    13.5 secs   av.it.:   9.7
      thresh= 0.177E-06 alpha_mix =  0.700 |ddv_scf|^2 =  0.385E-14

     End of self-consistent calculation

     Convergence has been achieved 


     Representation #  2 modes #   4  5  6

     Self-consistent Calculation

      iter #   1 total cpu time :    14.1 secs   av.it.:   5.5
      thresh= 0.100E-01 alpha_mix =  0.700 |ddv_scf|^2 =  0.675E-07

      iter #   2 total cpu time :    15.1 secs   av.it.:  10.2
      thresh= 0.260E-04 alpha_mix =  0.700 |ddv_scf|^2 =  0.120E-08

      iter #   3 total cpu time :    16.1 secs   av.it.:  10.1
      thresh= 0.347E-05 alpha_mix =  0.700 |ddv_scf|^2 =  0.611E-11

      iter #   4 total cpu time :    18.3 secs   av.it.:  10.1
      thresh= 0.247E-06 alpha_mix =  0.700 |ddv_scf|^2 =  0.213E-13

     End of self-consistent calculation

     Convergence has been achieved 
 
     Number of q in the star =    1
     List of q in the star:
          1   0.000000000   0.000000000   0.000000000

          Dielectric constant in cartesian axis 

          (      25.166679849       0.000000000       0.000000000 )
          (       0.000000000      25.166679849       0.000000000 )
          (       0.000000000       0.000000000      25.166679849 )

          Effective charges (d Force / dE) in cartesian axis

           atom      1   Ge 
      Ex  (       -0.20906        0.00000        0.00000 )
      Ey  (        0.00000       -0.20906        0.00000 )
      Ez  (        0.00000        0.00000       -0.20906 )
           atom      2   Ge 
      Ex  (       -0.20906        0.00000        0.00000 )
      Ey  (        0.00000       -0.20906        0.00000 )
      Ez  (        0.00000        0.00000       -0.20906 )

          Effective charges (d P / du) in cartesian axis 

           atom      1   Ge 
      Px  (       -0.20784        0.00000        0.00000 )
      Py  (        0.00000       -0.20784        0.00000 )
      Pz  (        0.00000        0.00000       -0.20784 )
           atom      2   Ge 
      Px  (       -0.20784        0.00000        0.00000 )
      Py  (        0.00000       -0.20784        0.00000 )
      Pz  (        0.00000        0.00000       -0.20784 )

     Diagonalizing the dynamical matrix

     q = (    0.000000000   0.000000000   0.000000000 ) 

 **************************************************************************
     omega( 1) =       0.209284 [THz] =       6.980964 [cm-1]
     omega( 2) =       0.209284 [THz] =       6.980964 [cm-1]
     omega( 3) =       0.209284 [THz] =       6.980964 [cm-1]
     omega( 4) =       8.975111 [THz] =     299.377468 [cm-1]
     omega( 5) =       8.975111 [THz] =     299.377468 [cm-1]
     omega( 6) =       8.975111 [THz] =     299.377468 [cm-1]
 **************************************************************************

     Calculation of q =   -0.1250000   0.1250000  -0.1250000
 
     Parallelization info
     --------------------
     sticks:   dense  smooth     PW     G-vecs:    dense   smooth      PW
     Min          70      70     24                  779      779     161
     Max          71      71     25                  780      780     162
     Sum         283     283     97                 3119     3119     645
 


     bravais-lattice index     =            2
     lattice parameter (alat)  =      10.6000  a.u.
     unit-cell volume          =     297.7540 (a.u.)^3
     number of atoms/cell      =            2
     number of atomic types    =            1
     number of electrons       =         8.00
     number of Kohn-Sham states=            4
     kinetic-energy cutoff     =      18.0000  Ry
     charge density cutoff     =      72.0000  Ry
     Exchange-correlation      =  SLA  PZ   NOGX NOGC ( 1 1 0 0 0)
     EXX-fraction              =        0.00

     celldm(1)=  10.600000  celldm(2)=   0.000000  celldm(3)=   0.000000
     celldm(4)=   0.000000  celldm(5)=   0.000000  celldm(6)=   0.000000

     crystal axes: (cart. coord. in units of alat)
               a(1) = (  -0.500000   0.000000   0.500000 )  
               a(2) = (   0.000000   0.500000   0.500000 )  
               a(3) = (  -0.500000   0.500000   0.000000 )  

     reciprocal axes: (cart. coord. in units 2 pi/alat)
               b(1) = ( -1.000000 -1.000000  1.000000 )  
               b(2) = (  1.000000  1.000000  1.000000 )  
               b(3) = ( -1.000000  1.000000 -1.000000 )  


     PseudoPot. # 1 for Ge read from file:
     /home/ywg/QuantumEspresso/pseudo/Ge.pz-bhs.UPF
     MD5 check sum: bb78d5f8e158bcc491d4c705bdf69fa7
     Pseudo is Norm-conserving, Zval =  4.0
     Generated by new atomic code, or converted to UPF format
     Using radial grid of  291 points,  2 beta functions with: 
                l(1) =   0
                l(2) =   1

     atomic species   valence    mass     pseudopotential
        Ge             4.00    72.61000     Ge( 1.00)

     48 Sym. Ops., with inversion, found



   Cartesian axes

     site n.     atom                  positions (alat units)
         1           Ge  tau(   1) = (   0.0000000   0.0000000   0.0000000  )
         2           Ge  tau(   2) = (   0.2500000   0.2500000   0.2500000  )

     number of k points=   240

     Number of k-points >= 100: set verbosity='high' to print them.

     Dense  grid:     3119 G-vectors     FFT dimensions: (  24,  24,  24)

     Largest allocated arrays     est. size (Mb)     dimensions
        Kohn-Sham Wavefunctions         0.01 Mb     (    104,    4)
        NL pseudopotentials             0.01 Mb     (    104,    8)
        Each V/rho on FFT grid          0.05 Mb     (   3456)
        Each G-vector array             0.01 Mb     (    779)
        G-vector shells                 0.00 Mb     (     70)
     Largest temporary arrays     est. size (Mb)     dimensions
        Auxiliary wavefunctions         0.03 Mb     (    104,   16)
        Each subspace H/S matrix        0.00 Mb     (  16,  16)
        Each <psi_i|beta_j> matrix      0.00 Mb     (      8,    4)

     The potential is recalculated from file :
     /home/ywg/tmp/Ge/_ph0/ge.save/charge-density.dat

     Starting wfc are    8 atomic wfcs

     total cpu time spent up to now is        0.0 secs

     per-process dynamical memory:     1.5 Mb

     Band Structure Calculation
     Davidson diagonalization with overlap

     ethr =  1.25E-10,  avg # of iterations = 11.4

     total cpu time spent up to now is        4.5 secs

     End of band structure calculation

          k = 0.0000 0.0000 0.0000     band energies (ev):

    -7.0800   5.6536   5.6536   5.6536

          k =-0.1250 0.1250-0.1250     band energies (ev):

    -6.8990   3.4162   5.3240   5.3240

          k =-0.1250 0.1250-0.1250     band energies (ev):

    -6.8990   3.4162   5.3240   5.3240

          k =-0.2500 0.2500-0.2500     band energies (ev):

    -6.3713   0.9331   4.7847   4.7847

          k =-0.2500 0.2500-0.2500     band energies (ev):

    -6.3713   0.9331   4.7847   4.7847

          k =-0.3750 0.3750-0.3750     band energies (ev):

    -5.5899  -1.0808   4.4061   4.4061

          k =-0.3750 0.3750-0.3750     band energies (ev):

    -5.5899  -1.0808   4.4061   4.4061

          k =-0.5000 0.5000-0.5000     band energies (ev):

    -5.0631  -2.0266   4.2745   4.2745

          k = 0.5000-0.5000 0.5000     band energies (ev):

    -5.0631  -2.0266   4.2745   4.2745

          k = 0.3750-0.3750 0.3750     band energies (ev):

    -5.5899  -1.0808   4.4061   4.4061

          k = 0.0000 0.2500 0.0000     band energies (ev):

    -6.8377   3.4276   4.7783   4.7783

          k =-0.1250 0.3750-0.1250     band energies (ev):

    -6.4209   1.5149   4.1559   4.2184

          k =-0.1250 0.3750-0.1250     band energies (ev):

    -6.4209   1.5149   4.1559   4.2184

          k =-0.2500 0.5000-0.2500     band energies (ev):

    -5.7002  -0.5197   3.4737   3.9103

          k =-0.2500 0.5000-0.2500     band energies (ev):

    -5.7002  -0.5197   3.4737   3.9103

          k =-0.3750 0.6250-0.3750     band energies (ev):

    -4.9694  -1.8887   3.0062   3.9143

          k = 0.6250-0.3750 0.6250     band energies (ev):

    -4.9694  -1.8887   3.0062   3.9143

          k = 0.5000-0.2500 0.5000     band energies (ev):

    -5.1713  -1.5527   2.8545   4.2181

          k = 0.5000-0.2500 0.5000     band energies (ev):

    -5.1713  -1.5527   2.8545   4.2181

          k = 0.3750-0.1250 0.3750     band energies (ev):

    -5.9709   0.1216   3.0875   4.7471

          k = 0.3750-0.1250 0.3750     band energies (ev):

    -5.9709   0.1216   3.0875   4.7471

          k = 0.2500 0.0000 0.2500     band energies (ev):

    -6.6005   2.0881   3.8962   5.2857

          k = 0.2500 0.0000 0.2500     band energies (ev):

    -6.6005   2.0881   3.8962   5.2857

          k = 0.1250 0.1250 0.1250     band energies (ev):

    -6.8990   3.4162   5.3240   5.3240

          k = 0.0000 0.5000 0.0000     band energies (ev):

    -6.1141   0.9704   3.6158   3.6158

          k =-0.1250 0.6250-0.1250     band energies (ev):

    -5.4768  -0.4424   2.7764   3.2683

          k =-0.1250 0.6250-0.1250     band energies (ev):

    -5.4768  -0.4424   2.7764   3.2683

          k =-0.2500 0.7500-0.2500     band energies (ev):

    -4.6638  -1.7869   1.8793   3.2585

          k = 0.7500-0.2500 0.7500     band energies (ev):

    -4.6638  -1.7869   1.8793   3.2585

          k = 0.6250-0.1250 0.6250     band energies (ev):

    -4.5025  -2.0038   1.4413   3.5832

          k = 0.6250-0.1250 0.6250     band energies (ev):

    -4.5025  -2.0038   1.4413   3.5832

          k = 0.5000 0.0000 0.5000     band energies (ev):

    -5.2654  -0.9120   1.7274   4.1647

          k = 0.5000 0.0000 0.5000     band energies (ev):

    -5.2654  -0.9120   1.7274   4.1647

          k = 0.3750 0.1250 0.3750     band energies (ev):

    -5.9709   0.1216   3.0875   4.7471

          k = 0.0000 0.7500 0.0000     band energies (ev):

    -4.9220  -1.2993   2.8473   2.8473

          k =-0.1250 0.8750-0.1250     band energies (ev):

    -4.1054  -2.3618   2.0535   2.7619

          k = 0.8750-0.1250 0.8750     band energies (ev):

    -4.1054  -2.3618   2.0535   2.7619

          k = 0.7500 0.0000 0.7500     band energies (ev):

    -3.7582  -2.7041   1.2441   3.0260

          k = 0.7500 0.0000 0.7500     band energies (ev):

    -3.7582  -2.7041   1.2441   3.0260

          k = 0.6250 0.1250 0.6250     band energies (ev):

    -4.5025  -2.0038   1.4413   3.5832

          k = 0.0000-1.0000 0.0000     band energies (ev):

    -3.2950  -3.2950   2.5840   2.5840

          k =-0.1250-0.8750-0.1250     band energies (ev):

    -4.1054  -2.3618   2.0535   2.7619

          k =-0.2500 0.5000 0.0000     band energies (ev):

    -5.8960   0.2842   2.7661   4.0480

          k =-0.3750 0.6250-0.1250     band energies (ev):

    -5.1106  -1.2162   2.0692   3.5553

          k = 0.6250-0.3750 0.8750     band energies (ev):

    -5.1106  -1.2162   2.0692   3.5553

          k = 0.5000-0.2500 0.7500     band energies (ev):

    -4.5609  -2.0599   1.8876   3.3352

          k = 0.5000-0.2500 0.7500     band energies (ev):

    -4.5609  -2.0599   1.8876   3.3352

          k = 0.3750-0.1250 0.6250     band energies (ev):

    -5.1106  -1.2162   2.0692   3.5553

          k = 0.7500-0.2500 1.0000     band energies (ev):

    -4.7536  -1.5130   2.1103   2.7390

          k = 0.6250-0.1250 0.8750     band energies (ev):

    -3.9859  -2.4352   1.4483   2.5395

          k = 0.6250-0.1250 0.8750     band energies (ev):

    -3.9859  -2.4352   1.4483   2.5395

          k = 0.5000 0.0000 0.7500     band energies (ev):

    -4.3080  -2.0709   1.2912   2.9084

          k = 0.5000 0.0000 0.7500     band energies (ev):

    -4.3080  -2.0709   1.2912   2.9084

          k = 0.3750 0.1250 0.6250     band energies (ev):

    -5.1106  -1.2162   2.0692   3.5553

          k =-0.2500-1.0000 0.0000     band energies (ev):

    -3.2454  -3.2454   2.0760   2.0760

          k =-0.3750-0.8750-0.1250     band energies (ev):

    -3.9859  -2.4352   1.4483   2.5395

          k =-0.5000-1.0000 0.0000     band energies (ev):

    -3.1931  -3.1931   1.6867   1.6867

          k =-0.6250-0.8750-0.1250     band energies (ev):

    -3.9859  -2.4352   1.4483   2.5395

          k = 0.1250-0.1250-0.1250     band energies (ev):

    -6.8990   3.4162   5.3240   5.3240

          k = 0.0000 0.0000-0.2500     band energies (ev):

    -6.8377   3.4276   4.7783   4.7783

          k = 0.1250-0.1250 0.1250     band energies (ev):

    -6.8990   3.4162   5.3240   5.3240

          k = 0.0000 0.0000 0.0000     band energies (ev):

    -7.0800   5.6536   5.6536   5.6536

          k =-0.1250 0.1250 0.1250     band energies (ev):

    -6.8990   3.4162   5.3240   5.3240

          k =-0.2500 0.2500 0.0000     band energies (ev):

    -6.6005   2.0881   3.8962   5.2857

          k = 0.2500-0.2500-0.2500     band energies (ev):

    -6.3713   0.9331   4.7847   4.7847

          k = 0.1250-0.1250-0.3750     band energies (ev):

    -6.4209   1.5149   4.1559   4.2184

          k = 0.2500-0.2500 0.2500     band energies (ev):

    -6.3713   0.9331   4.7847   4.7847

          k = 0.1250-0.1250 0.1250     band energies (ev):

    -6.8990   3.4162   5.3240   5.3240

          k =-0.2500 0.2500 0.2500     band energies (ev):

    -6.3713   0.9331   4.7847   4.7847

          k =-0.3750 0.3750 0.1250     band energies (ev):

    -5.9709   0.1216   3.0875   4.7471

          k = 0.3750-0.3750-0.3750     band energies (ev):

    -5.5899  -1.0808   4.4061   4.4061

          k = 0.2500-0.2500-0.5000     band energies (ev):

    -5.7002  -0.5197   3.4737   3.9103

          k = 0.3750-0.3750 0.3750     band energies (ev):

    -5.5899  -1.0808   4.4061   4.4061

          k = 0.2500-0.2500 0.2500     band energies (ev):

    -6.3713   0.9331   4.7847   4.7847

          k =-0.3750 0.3750 0.3750     band energies (ev):

    -5.5899  -1.0808   4.4061   4.4061

          k =-0.5000 0.5000 0.2500     band energies (ev):

    -5.1713  -1.5527   2.8545   4.2181

          k =-0.5000 0.5000 0.5000     band energies (ev):

    -5.0631  -2.0266   4.2745   4.2745

          k =-0.6250 0.6250 0.3750     band energies (ev):

    -4.9694  -1.8887   3.0062   3.9143

          k = 0.0000 0.0000 0.2500     band energies (ev):

    -6.8377   3.4276   4.7783   4.7783

          k =-0.1250 0.1250 0.1250     band energies (ev):

    -6.8990   3.4162   5.3240   5.3240

          k = 0.1250-0.1250-0.3750     band energies (ev):

    -6.4209   1.5149   4.1559   4.2184

          k = 0.0000 0.0000-0.5000     band energies (ev):

    -6.1141   0.9704   3.6158   3.6158

          k = 0.1250-0.1250 0.3750     band energies (ev):

    -6.4209   1.5149   4.1559   4.2184

          k = 0.0000 0.0000 0.2500     band energies (ev):

    -6.8377   3.4276   4.7783   4.7783

          k = 0.1250-0.3750-0.1250     band energies (ev):

    -6.4209   1.5149   4.1559   4.2184

          k = 0.0000-0.2500-0.2500     band energies (ev):

    -6.6005   2.0881   3.8962   5.2857

          k =-0.1250 0.3750 0.1250     band energies (ev):

    -6.4209   1.5149   4.1559   4.2184

          k =-0.2500 0.5000 0.0000     band energies (ev):

    -5.8960   0.2842   2.7661   4.0480

          k =-0.1250-0.3750-0.1250     band energies (ev):

    -6.4209   1.5149   4.1559   4.2184

          k =-0.2500-0.2500-0.2500     band energies (ev):

    -6.3713   0.9331   4.7847   4.7847

          k = 0.2500-0.2500-0.5000     band energies (ev):

    -5.7002  -0.5197   3.4737   3.9103

          k = 0.1250-0.1250-0.6250     band energies (ev):

    -5.4768  -0.4424   2.7764   3.2683

          k = 0.2500-0.2500 0.5000     band energies (ev):

    -5.7002  -0.5197   3.4737   3.9103

          k = 0.1250-0.1250 0.3750     band energies (ev):

    -6.4209   1.5149   4.1559   4.2184

          k = 0.2500-0.5000-0.2500     band energies (ev):

    -5.7002  -0.5197   3.4737   3.9103

          k = 0.1250-0.3750-0.3750     band energies (ev):

    -5.9709   0.1216   3.0875   4.7471

          k =-0.2500 0.5000 0.2500     band energies (ev):

    -5.7002  -0.5197   3.4737   3.9103

          k =-0.3750 0.6250 0.1250     band energies (ev):

    -5.1106  -1.2162   2.0692   3.5553

          k =-0.2500-0.5000-0.2500     band energies (ev):

    -5.7002  -0.5197   3.4737   3.9103

          k =-0.3750-0.3750-0.3750     band energies (ev):

    -5.5899  -1.0808   4.4061   4.4061

          k =-0.6250 0.6250 0.3750     band energies (ev):

    -4.9694  -1.8887   3.0062   3.9143

          k =-0.7500 0.7500 0.2500     band energies (ev):

    -4.6638  -1.7869   1.8793   3.2585

          k =-0.6250 0.6250-0.3750     band energies (ev):

    -4.9694  -1.8887   3.0062   3.9143

          k =-0.7500 0.7500-0.5000     band energies (ev):

    -5.7002  -0.5197   3.4737   3.9103

          k =-0.6250 0.3750 0.6250     band energies (ev):

    -4.9694  -1.8887   3.0062   3.9143

          k =-0.7500 0.5000 0.5000     band energies (ev):

    -5.1713  -1.5527   2.8545   4.2181

          k = 0.6250-0.3750-0.6250     band energies (ev):

    -4.9694  -1.8887   3.0062   3.9143

          k = 0.5000-0.2500-0.7500     band energies (ev):

    -4.5609  -2.0599   1.8876   3.3352

          k = 0.6250 0.3750 0.6250     band energies (ev):

    -4.9694  -1.8887   3.0062   3.9143

          k = 0.5000 0.5000 0.5000     band energies (ev):

    -5.0631  -2.0266   4.2745   4.2745

          k =-0.5000 0.5000 0.2500     band energies (ev):

    -5.1713  -1.5527   2.8545   4.2181

          k =-0.6250 0.6250 0.1250     band energies (ev):

    -4.5025  -2.0038   1.4413   3.5832

          k =-0.5000 0.5000-0.2500     band energies (ev):

    -5.1713  -1.5527   2.8545   4.2181

          k =-0.6250 0.6250-0.3750     band energies (ev):

    -4.9694  -1.8887   3.0062   3.9143

          k =-0.5000 0.2500 0.5000     band energies (ev):

    -5.1713  -1.5527   2.8545   4.2181

          k =-0.6250 0.3750 0.3750     band energies (ev):

    -4.9694  -1.8887   3.0062   3.9143

          k = 0.5000-0.2500-0.5000     band energies (ev):

    -5.1713  -1.5527   2.8545   4.2181

          k = 0.3750-0.1250-0.6250     band energies (ev):

    -5.1106  -1.2162   2.0692   3.5553

          k = 0.5000 0.2500 0.5000     band energies (ev):

    -5.1713  -1.5527   2.8545   4.2181

          k = 0.3750 0.3750 0.3750     band energies (ev):

    -5.5899  -1.0808   4.4061   4.4061

          k =-0.3750 0.3750 0.1250     band energies (ev):

    -5.9709   0.1216   3.0875   4.7471

          k =-0.5000 0.5000 0.0000     band energies (ev):

    -5.2654  -0.9120   1.7274   4.1647

          k =-0.3750 0.3750-0.1250     band energies (ev):

    -5.9709   0.1216   3.0875   4.7471

          k =-0.5000 0.5000-0.2500     band energies (ev):

    -5.1713  -1.5527   2.8545   4.2181

          k =-0.3750 0.1250 0.3750     band energies (ev):

    -5.9709   0.1216   3.0875   4.7471

          k =-0.5000 0.2500 0.2500     band energies (ev):

    -5.7002  -0.5197   3.4737   3.9103

          k = 0.3750-0.1250-0.3750     band energies (ev):

    -5.9709   0.1216   3.0875   4.7471

          k = 0.2500 0.0000-0.5000     band energies (ev):

    -5.8960   0.2842   2.7661   4.0480

          k = 0.3750 0.1250 0.3750     band energies (ev):

    -5.9709   0.1216   3.0875   4.7471

          k = 0.2500 0.2500 0.2500     band energies (ev):

    -6.3713   0.9331   4.7847   4.7847

          k =-0.2500 0.2500 0.0000     band energies (ev):

    -6.6005   2.0881   3.8962   5.2857

          k =-0.3750 0.3750-0.1250     band energies (ev):

    -5.9709   0.1216   3.0875   4.7471

          k =-0.2500 0.0000 0.2500     band energies (ev):

    -6.6005   2.0881   3.8962   5.2857

          k =-0.3750 0.1250 0.1250     band energies (ev):

    -6.4209   1.5149   4.1559   4.2184

          k = 0.0000 0.0000 0.5000     band energies (ev):

    -6.1141   0.9704   3.6158   3.6158

          k =-0.1250 0.1250 0.3750     band energies (ev):

    -6.4209   1.5149   4.1559   4.2184

          k = 0.1250-0.1250-0.6250     band energies (ev):

    -5.4768  -0.4424   2.7764   3.2683

          k = 0.0000 0.0000-0.7500     band energies (ev):

    -4.9220  -1.2993   2.8473   2.8473

          k = 0.1250-0.1250 0.6250     band energies (ev):

    -5.4768  -0.4424   2.7764   3.2683

          k = 0.0000 0.0000 0.5000     band energies (ev):

    -6.1141   0.9704   3.6158   3.6158

          k = 0.1250-0.6250-0.1250     band energies (ev):

    -5.4768  -0.4424   2.7764   3.2683

          k = 0.0000-0.5000-0.2500     band energies (ev):

    -5.8960   0.2842   2.7661   4.0480

          k =-0.1250 0.6250 0.1250     band energies (ev):

    -5.4768  -0.4424   2.7764   3.2683

          k =-0.2500 0.7500 0.0000     band energies (ev):

    -4.7536  -1.5130   2.1103   2.7390

          k =-0.1250-0.6250-0.1250     band energies (ev):

    -5.4768  -0.4424   2.7764   3.2683

          k =-0.2500-0.5000-0.2500     band energies (ev):

    -5.7002  -0.5197   3.4737   3.9103

          k =-0.7500 0.7500 0.2500     band energies (ev):

    -4.6638  -1.7869   1.8793   3.2585

          k =-0.8750 0.8750 0.1250     band energies (ev):

    -4.1054  -2.3618   2.0535   2.7619

          k =-0.7500 0.7500-0.2500     band energies (ev):

    -4.6638  -1.7869   1.8793   3.2585

          k =-0.8750 0.8750-0.3750     band energies (ev):

    -5.4768  -0.4424   2.7764   3.2683

          k =-0.7500 0.2500 0.7500     band energies (ev):

    -4.6638  -1.7869   1.8793   3.2585

          k =-0.8750 0.3750 0.6250     band energies (ev):

    -5.1106  -1.2162   2.0692   3.5553

          k = 0.7500-0.2500-0.7500     band energies (ev):

    -4.6638  -1.7869   1.8793   3.2585

          k = 0.6250-0.1250-0.8750     band energies (ev):

    -3.9859  -2.4352   1.4483   2.5395

          k = 0.7500 0.2500 0.7500     band energies (ev):

    -4.6638  -1.7869   1.8793   3.2585

          k = 0.6250 0.3750 0.6250     band energies (ev):

    -4.9694  -1.8887   3.0062   3.9143

          k =-0.6250 0.6250 0.1250     band energies (ev):

    -4.5025  -2.0038   1.4413   3.5832

          k =-0.7500 0.7500 0.0000     band energies (ev):

    -3.7582  -2.7041   1.2441   3.0260

          k =-0.6250 0.6250-0.1250     band energies (ev):

    -4.5025  -2.0038   1.4413   3.5832

          k =-0.7500 0.7500-0.2500     band energies (ev):

    -4.6638  -1.7869   1.8793   3.2585

          k =-0.6250 0.1250 0.6250     band energies (ev):

    -4.5025  -2.0038   1.4413   3.5832

          k =-0.7500 0.2500 0.5000     band energies (ev):

    -4.5609  -2.0599   1.8876   3.3352

          k = 0.6250-0.1250-0.6250     band energies (ev):

    -4.5025  -2.0038   1.4413   3.5832

          k = 0.5000 0.0000-0.7500     band energies (ev):

    -4.3080  -2.0709   1.2912   2.9084

          k = 0.6250 0.1250 0.6250     band energies (ev):

    -4.5025  -2.0038   1.4413   3.5832

          k = 0.5000 0.2500 0.5000     band energies (ev):

    -5.1713  -1.5527   2.8545   4.2181

          k =-0.5000 0.5000 0.0000     band energies (ev):

    -5.2654  -0.9120   1.7274   4.1647

          k =-0.6250 0.6250-0.1250     band energies (ev):

    -4.5025  -2.0038   1.4413   3.5832

          k =-0.5000 0.0000 0.5000     band energies (ev):

    -5.2654  -0.9120   1.7274   4.1647

          k =-0.6250 0.1250 0.3750     band energies (ev):

    -5.1106  -1.2162   2.0692   3.5553

          k = 0.0000 0.0000 0.7500     band energies (ev):

    -4.9220  -1.2993   2.8473   2.8473

          k =-0.1250 0.1250 0.6250     band energies (ev):

    -5.4768  -0.4424   2.7764   3.2683

          k =-0.8750 0.8750 0.1250     band energies (ev):

    -4.1054  -2.3618   2.0535   2.7619

          k =-1.0000 1.0000 0.0000     band energies (ev):

    -3.2950  -3.2950   2.5840   2.5840

          k =-0.8750 0.8750-0.1250     band energies (ev):

    -4.1054  -2.3618   2.0535   2.7619

          k =-1.0000 1.0000-0.2500     band energies (ev):

    -4.9220  -1.2993   2.8473   2.8473

          k =-0.8750 0.1250 0.8750     band energies (ev):

    -4.1054  -2.3618   2.0535   2.7619

          k =-1.0000 0.2500 0.7500     band energies (ev):

    -4.7536  -1.5130   2.1103   2.7390

          k = 0.8750-0.1250-0.8750     band energies (ev):

    -4.1054  -2.3618   2.0535   2.7619

          k = 0.7500 0.0000-1.0000     band energies (ev):

    -3.2454  -3.2454   2.0760   2.0760

          k = 0.8750 0.1250 0.8750     band energies (ev):

    -4.1054  -2.3618   2.0535   2.7619

          k = 0.7500 0.2500 0.7500     band energies (ev):

    -4.6638  -1.7869   1.8793   3.2585

          k =-0.7500 0.7500 0.0000     band energies (ev):

    -3.7582  -2.7041   1.2441   3.0260

          k =-0.8750 0.8750-0.1250     band energies (ev):

    -4.1054  -2.3618   2.0535   2.7619

          k =-0.7500 0.0000 0.7500     band energies (ev):

    -3.7582  -2.7041   1.2441   3.0260

          k =-0.8750 0.1250 0.6250     band energies (ev):

    -3.9859  -2.4352   1.4483   2.5395

          k = 0.2500 0.0000-0.5000     band energies (ev):

    -5.8960   0.2842   2.7661   4.0480

          k = 0.1250 0.1250-0.6250     band energies (ev):

    -5.4768  -0.4424   2.7764   3.2683

          k = 0.2500 0.0000 0.5000     band energies (ev):

    -5.8960   0.2842   2.7661   4.0480

          k = 0.1250 0.1250 0.3750     band energies (ev):

    -6.4209   1.5149   4.1559   4.2184

          k = 0.0000-0.5000-0.2500     band energies (ev):

    -5.8960   0.2842   2.7661   4.0480

          k =-0.1250-0.3750-0.3750     band energies (ev):

    -5.9709   0.1216   3.0875   4.7471

          k =-0.6250 0.8750 0.3750     band energies (ev):

    -5.1106  -1.2162   2.0692   3.5553

          k =-0.7500 1.0000 0.2500     band energies (ev):

    -4.7536  -1.5130   2.1103   2.7390

          k =-0.6250 0.8750-0.3750     band energies (ev):

    -5.1106  -1.2162   2.0692   3.5553

          k =-0.7500 1.0000-0.5000     band energies (ev):

    -5.8960   0.2842   2.7661   4.0480

          k =-0.6250 0.3750 0.8750     band energies (ev):

    -5.1106  -1.2162   2.0692   3.5553

          k =-0.7500 0.5000 0.7500     band energies (ev):

    -5.7002  -0.5197   3.4737   3.9103

          k = 0.8750-0.3750-0.6250     band energies (ev):

    -5.1106  -1.2162   2.0692   3.5553

          k = 0.7500-0.2500-0.7500     band energies (ev):

    -4.6638  -1.7869   1.8793   3.2585

          k =-0.8750-0.3750 0.6250     band energies (ev):

    -5.1106  -1.2162   2.0692   3.5553

          k =-1.0000-0.2500 0.5000     band energies (ev):

    -4.3080  -2.0709   1.2912   2.9084

          k = 0.8750 0.3750 0.6250     band energies (ev):

    -5.1106  -1.2162   2.0692   3.5553

          k = 0.7500 0.5000 0.5000     band energies (ev):

    -5.1713  -1.5527   2.8545   4.2181

          k =-0.8750 0.3750 0.6250     band energies (ev):

    -5.1106  -1.2162   2.0692   3.5553

          k =-1.0000 0.5000 0.5000     band energies (ev):

    -5.2654  -0.9120   1.7274   4.1647

          k =-0.5000 0.7500 0.2500     band energies (ev):

    -4.5609  -2.0599   1.8876   3.3352

          k =-0.6250 0.8750 0.1250     band energies (ev):

    -3.9859  -2.4352   1.4483   2.5395

          k =-0.5000 0.2500 0.7500     band energies (ev):

    -4.5609  -2.0599   1.8876   3.3352

          k =-0.6250 0.3750 0.6250     band energies (ev):

    -4.9694  -1.8887   3.0062   3.9143

          k = 0.7500-0.2500-0.5000     band energies (ev):

    -4.5609  -2.0599   1.8876   3.3352

          k = 0.6250-0.1250-0.6250     band energies (ev):

    -4.5025  -2.0038   1.4413   3.5832

          k =-0.7500 1.0000 0.2500     band energies (ev):

    -4.7536  -1.5130   2.1103   2.7390

          k =-0.8750 1.1250 0.1250     band energies (ev):

    -4.1054  -2.3618   2.0535   2.7619

          k =-0.7500 1.0000-0.2500     band energies (ev):

    -4.7536  -1.5130   2.1103   2.7390

          k =-0.8750 1.1250-0.3750     band energies (ev):

    -5.4768  -0.4424   2.7764   3.2683

          k = 1.0000 0.2500 0.7500     band energies (ev):

    -4.7536  -1.5130   2.1103   2.7390

          k = 0.8750 0.3750 0.6250     band energies (ev):

    -5.1106  -1.2162   2.0692   3.5553

          k =-0.6250 0.8750 0.1250     band energies (ev):

    -3.9859  -2.4352   1.4483   2.5395

          k =-0.7500 1.0000 0.0000     band energies (ev):

    -3.2454  -3.2454   2.0760   2.0760

          k =-0.6250 0.8750-0.1250     band energies (ev):

    -3.9859  -2.4352   1.4483   2.5395

          k =-0.7500 1.0000-0.2500     band energies (ev):

    -4.7536  -1.5130   2.1103   2.7390

          k =-0.6250 0.1250 0.8750     band energies (ev):

    -3.9859  -2.4352   1.4483   2.5395

          k =-0.7500 0.2500 0.7500     band energies (ev):

    -4.6638  -1.7869   1.8793   3.2585

          k = 0.8750-0.1250-0.6250     band energies (ev):

    -3.9859  -2.4352   1.4483   2.5395

          k = 0.7500 0.0000-0.7500     band energies (ev):

    -3.7582  -2.7041   1.2441   3.0260

          k =-0.8750-0.1250 0.6250     band energies (ev):

    -3.9859  -2.4352   1.4483   2.5395

          k =-1.0000 0.0000 0.5000     band energies (ev):

    -3.1931  -3.1931   1.6867   1.6867

          k = 0.8750 0.1250 0.6250     band energies (ev):

    -3.9859  -2.4352   1.4483   2.5395

          k = 0.7500 0.2500 0.5000     band energies (ev):

    -4.5609  -2.0599   1.8876   3.3352

          k =-0.8750 0.1250 0.6250     band energies (ev):

    -3.9859  -2.4352   1.4483   2.5395

          k =-1.0000 0.2500 0.5000     band energies (ev):

    -4.3080  -2.0709   1.2912   2.9084

          k =-0.5000 0.7500 0.0000     band energies (ev):

    -4.3080  -2.0709   1.2912   2.9084

          k =-0.6250 0.8750-0.1250     band energies (ev):

    -3.9859  -2.4352   1.4483   2.5395

          k =-0.5000 0.0000 0.7500     band energies (ev):

    -4.3080  -2.0709   1.2912   2.9084

          k =-0.6250 0.1250 0.6250     band energies (ev):

    -4.5025  -2.0038   1.4413   3.5832

          k =-0.7500 0.0000 0.5000     band energies (ev):

    -4.3080  -2.0709   1.2912   2.9084

          k =-0.8750 0.1250 0.3750     band energies (ev):

    -3.9859  -2.4352   1.4483   2.5395

          k = 0.2500 0.0000 1.0000     band energies (ev):

    -3.2454  -3.2454   2.0760   2.0760

          k = 0.1250 0.1250 0.8750     band energies (ev):

    -4.1054  -2.3618   2.0535   2.7619

     Writing output data file ge.save

                                                                                

     bravais-lattice index     =            2
     lattice parameter (alat)  =      10.6000  a.u.
     unit-cell volume          =     297.7540 (a.u.)^3
     number of atoms/cell      =            2
     number of atomic types    =            1
     kinetic-energy cut-off    =      18.0000  Ry
     charge density cut-off    =      72.0000  Ry
     convergence threshold     =      1.0E-12
     beta                      =       0.7000
     number of iterations used =            4
     Exchange-correlation      =  SLA  PZ   NOGX NOGC ( 1 1 0 0 0)
     EXX-fraction              =        0.00


     celldm(1)=   10.60000  celldm(2)=    0.00000  celldm(3)=    0.00000
     celldm(4)=    0.00000  celldm(5)=    0.00000  celldm(6)=    0.00000

     crystal axes: (cart. coord. in units of alat)
               a(1) = ( -0.5000  0.0000  0.5000 )  
               a(2) = (  0.0000  0.5000  0.5000 )  
               a(3) = ( -0.5000  0.5000  0.0000 )  

     reciprocal axes: (cart. coord. in units 2 pi/alat)
               b(1) = ( -1.0000 -1.0000  1.0000 )  
               b(2) = (  1.0000  1.0000  1.0000 )  
               b(3) = ( -1.0000  1.0000 -1.0000 )  


     Atoms inside the unit cell: 

   Cartesian axes

     site n.  atom      mass           positions (alat units)
        1        Ge  72.6100   tau( 1) = (    0.00000    0.00000    0.00000  )
        2        Ge  72.6100   tau( 2) = (    0.25000    0.25000    0.25000  )

     Computing dynamical matrix for 
                    q = (  -0.1250000   0.1250000  -0.1250000 )
 
      6 Sym.Ops. (no q -> -q+G )


     G cutoff =  204.9201  (    779 G-vectors)     FFT grid: ( 24, 24, 24)
     number of k points=   240

     PseudoPot. # 1 for Ge read from file:
     /home/ywg/QuantumEspresso/pseudo/Ge.pz-bhs.UPF
     MD5 check sum: bb78d5f8e158bcc491d4c705bdf69fa7
     Pseudo is Norm-conserving, Zval =  4.0
     Generated by new atomic code, or converted to UPF format
     Using radial grid of  291 points,  2 beta functions with: 
                l(1) =   0
                l(2) =   1


     Atomic displacements:
     There are   4 irreducible representations

     Representation     1      1 modes -A_1  L_1 To be done

     Representation     2      1 modes -A_1  L_1 To be done

     Representation     3      2 modes -E    L_3 To be done

     Representation     4      2 modes -E    L_3 To be done



     Alpha used in Ewald sum =   0.7000
     PHONON       :    17.83s CPU        23.35s WALL



     Representation #  1 mode #   1

     Self-consistent Calculation

      iter #   1 total cpu time :    24.3 secs   av.it.:   6.2
      thresh= 0.100E-01 alpha_mix =  0.700 |ddv_scf|^2 =  0.170E-01

      iter #   2 total cpu time :    25.3 secs   av.it.:   7.5
      thresh= 0.100E-01 alpha_mix =  0.700 |ddv_scf|^2 =  0.895E+00

      iter #   3 total cpu time :    27.9 secs   av.it.:   7.4
      thresh= 0.100E-01 alpha_mix =  0.700 |ddv_scf|^2 =  0.177E-05

      iter #   4 total cpu time :    29.0 secs   av.it.:   7.6
      thresh= 0.133E-03 alpha_mix =  0.700 |ddv_scf|^2 =  0.101E-06

      iter #   5 total cpu time :    30.0 secs   av.it.:   7.3
      thresh= 0.317E-04 alpha_mix =  0.700 |ddv_scf|^2 =  0.104E-06

      iter #   6 total cpu time :    30.9 secs   av.it.:   5.8
      thresh= 0.323E-04 alpha_mix =  0.700 |ddv_scf|^2 =  0.203E-09

      iter #   7 total cpu time :    32.4 secs   av.it.:   8.0
      thresh= 0.143E-05 alpha_mix =  0.700 |ddv_scf|^2 =  0.652E-10

      iter #   8 total cpu time :    33.4 secs   av.it.:   6.7
      thresh= 0.807E-06 alpha_mix =  0.700 |ddv_scf|^2 =  0.577E-11

      iter #   9 total cpu time :    34.3 secs   av.it.:   6.7
      thresh= 0.240E-06 alpha_mix =  0.700 |ddv_scf|^2 =  0.110E-12

     End of self-consistent calculation

     Convergence has been achieved 


     Representation #  2 mode #   2

     Self-consistent Calculation

      iter #   1 total cpu time :    35.3 secs   av.it.:   6.2
      thresh= 0.100E-01 alpha_mix =  0.700 |ddv_scf|^2 =  0.170E-01

      iter #   2 total cpu time :    38.6 secs   av.it.:   7.5
      thresh= 0.100E-01 alpha_mix =  0.700 |ddv_scf|^2 =  0.895E+00

      iter #   3 total cpu time :    39.7 secs   av.it.:   7.4
      thresh= 0.100E-01 alpha_mix =  0.700 |ddv_scf|^2 =  0.178E-05

      iter #   4 total cpu time :    40.7 secs   av.it.:   7.6
      thresh= 0.133E-03 alpha_mix =  0.700 |ddv_scf|^2 =  0.975E-07

      iter #   5 total cpu time :    43.0 secs   av.it.:   7.4
      thresh= 0.312E-04 alpha_mix =  0.700 |ddv_scf|^2 =  0.672E-07

      iter #   6 total cpu time :    43.8 secs   av.it.:   5.8
      thresh= 0.259E-04 alpha_mix =  0.700 |ddv_scf|^2 =  0.193E-09

      iter #   7 total cpu time :    44.9 secs   av.it.:   8.0
      thresh= 0.139E-05 alpha_mix =  0.700 |ddv_scf|^2 =  0.645E-10

      iter #   8 total cpu time :    45.9 secs   av.it.:   6.7
      thresh= 0.803E-06 alpha_mix =  0.700 |ddv_scf|^2 =  0.591E-11

      iter #   9 total cpu time :    48.1 secs   av.it.:   6.7
      thresh= 0.243E-06 alpha_mix =  0.700 |ddv_scf|^2 =  0.108E-12

     End of self-consistent calculation

     Convergence has been achieved 


     Representation #  3 modes #   3  4

     Self-consistent Calculation

      iter #   1 total cpu time :    49.8 secs   av.it.:   5.7
      thresh= 0.100E-01 alpha_mix =  0.700 |ddv_scf|^2 =  0.186E-06

      iter #   2 total cpu time :    53.8 secs   av.it.:  10.2
      thresh= 0.431E-04 alpha_mix =  0.700 |ddv_scf|^2 =  0.295E-08

      iter #   3 total cpu time :    57.4 secs   av.it.:  10.0
      thresh= 0.543E-05 alpha_mix =  0.700 |ddv_scf|^2 =  0.143E-10

      iter #   4 total cpu time :    59.9 secs   av.it.:   9.9
      thresh= 0.378E-06 alpha_mix =  0.700 |ddv_scf|^2 =  0.100E-11

      iter #   5 total cpu time :    63.5 secs   av.it.:   9.9
      thresh= 0.100E-06 alpha_mix =  0.700 |ddv_scf|^2 =  0.232E-14

     End of self-consistent calculation

     Convergence has been achieved 


     Representation #  4 modes #   5  6

     Self-consistent Calculation

      iter #   1 total cpu time :    65.3 secs   av.it.:   5.8
      thresh= 0.100E-01 alpha_mix =  0.700 |ddv_scf|^2 =  0.186E-06

      iter #   2 total cpu time :    70.2 secs   av.it.:  10.3
      thresh= 0.431E-04 alpha_mix =  0.700 |ddv_scf|^2 =  0.294E-08

      iter #   3 total cpu time :    73.3 secs   av.it.:  10.2
      thresh= 0.542E-05 alpha_mix =  0.700 |ddv_scf|^2 =  0.143E-10

      iter #   4 total cpu time :    75.8 secs   av.it.:  10.0
      thresh= 0.378E-06 alpha_mix =  0.700 |ddv_scf|^2 =  0.100E-11

      iter #   5 total cpu time :    80.0 secs   av.it.:  10.0
      thresh= 0.100E-06 alpha_mix =  0.700 |ddv_scf|^2 =  0.234E-14

     End of self-consistent calculation

     Convergence has been achieved 
 
     Number of q in the star =    8
     List of q in the star:
          1  -0.125000000   0.125000000  -0.125000000
          2   0.125000000  -0.125000000  -0.125000000
          3   0.125000000  -0.125000000   0.125000000
          4  -0.125000000   0.125000000   0.125000000
          5   0.125000000   0.125000000  -0.125000000
          6  -0.125000000  -0.125000000  -0.125000000
          7  -0.125000000  -0.125000000   0.125000000
          8   0.125000000   0.125000000   0.125000000

     Diagonalizing the dynamical matrix

     q = (   -0.125000000   0.125000000  -0.125000000 ) 

 **************************************************************************
     omega( 1) =       1.036507 [THz] =      34.574136 [cm-1]
     omega( 2) =       1.036507 [THz] =      34.574136 [cm-1]
     omega( 3) =       2.061079 [THz] =      68.750201 [cm-1]
     omega( 4) =       8.809876 [THz] =     293.865837 [cm-1]
     omega( 5) =       8.809876 [THz] =     293.865837 [cm-1]
     omega( 6) =       8.865999 [THz] =     295.737884 [cm-1]
 **************************************************************************

     Calculation of q =   -0.2500000   0.2500000  -0.2500000
 
     Parallelization info
     --------------------
     sticks:   dense  smooth     PW     G-vecs:    dense   smooth      PW
     Min          70      70     27                  779      779     181
     Max          71      71     28                  780      780     182
     Sum         283     283    109                 3119     3119     725
 


     bravais-lattice index     =            2
     lattice parameter (alat)  =      10.6000  a.u.
     unit-cell volume          =     297.7540 (a.u.)^3
     number of atoms/cell      =            2
     number of atomic types    =            1
     number of electrons       =         8.00
     number of Kohn-Sham states=            4
     kinetic-energy cutoff     =      18.0000  Ry
     charge density cutoff     =      72.0000  Ry
     Exchange-correlation      =  SLA  PZ   NOGX NOGC ( 1 1 0 0 0)
     EXX-fraction              =        0.00

     celldm(1)=  10.600000  celldm(2)=   0.000000  celldm(3)=   0.000000
     celldm(4)=   0.000000  celldm(5)=   0.000000  celldm(6)=   0.000000

     crystal axes: (cart. coord. in units of alat)
               a(1) = (  -0.500000   0.000000   0.500000 )  
               a(2) = (   0.000000   0.500000   0.500000 )  
               a(3) = (  -0.500000   0.500000   0.000000 )  

     reciprocal axes: (cart. coord. in units 2 pi/alat)
               b(1) = ( -1.000000 -1.000000  1.000000 )  
               b(2) = (  1.000000  1.000000  1.000000 )  
               b(3) = ( -1.000000  1.000000 -1.000000 )  


     PseudoPot. # 1 for Ge read from file:
     /home/ywg/QuantumEspresso/pseudo/Ge.pz-bhs.UPF
     MD5 check sum: bb78d5f8e158bcc491d4c705bdf69fa7
     Pseudo is Norm-conserving, Zval =  4.0
     Generated by new atomic code, or converted to UPF format
     Using radial grid of  291 points,  2 beta functions with: 
                l(1) =   0
                l(2) =   1

     atomic species   valence    mass     pseudopotential
        Ge             4.00    72.61000     Ge( 1.00)

     48 Sym. Ops., with inversion, found



   Cartesian axes

     site n.     atom                  positions (alat units)
         1           Ge  tau(   1) = (   0.0000000   0.0000000   0.0000000  )
         2           Ge  tau(   2) = (   0.2500000   0.2500000   0.2500000  )

     number of k points=   240

     Number of k-points >= 100: set verbosity='high' to print them.

     Dense  grid:     3119 G-vectors     FFT dimensions: (  24,  24,  24)

     Largest allocated arrays     est. size (Mb)     dimensions
        Kohn-Sham Wavefunctions         0.01 Mb     (    105,    4)
        NL pseudopotentials             0.01 Mb     (    105,    8)
        Each V/rho on FFT grid          0.05 Mb     (   3456)
        Each G-vector array             0.01 Mb     (    779)
        G-vector shells                 0.00 Mb     (     71)
     Largest temporary arrays     est. size (Mb)     dimensions
        Auxiliary wavefunctions         0.03 Mb     (    105,   16)
        Each subspace H/S matrix        0.00 Mb     (  16,  16)
        Each <psi_i|beta_j> matrix      0.00 Mb     (      8,    4)

     The potential is recalculated from file :
     /home/ywg/tmp/Ge/_ph0/ge.save/charge-density.dat

     Starting wfc are    8 atomic wfcs

     total cpu time spent up to now is        4.9 secs

     per-process dynamical memory:     1.9 Mb

     Band Structure Calculation
     Davidson diagonalization with overlap

     ethr =  1.25E-10,  avg # of iterations = 11.4

     total cpu time spent up to now is        8.6 secs

     End of band structure calculation

          k = 0.0000 0.0000 0.0000 (   387 PWs)   bands (ev):

    -7.0800   5.6536   5.6536   5.6536

          k =-0.2500 0.2500-0.2500 (   380 PWs)   bands (ev):

    -6.3713   0.9331   4.7847   4.7847

          k =-0.1250 0.1250-0.1250 (   369 PWs)   bands (ev):

    -6.8990   3.4162   5.3240   5.3240

          k =-0.3750 0.3750-0.3750 (   386 PWs)   bands (ev):

    -5.5899  -1.0808   4.4061   4.4061

          k =-0.2500 0.2500-0.2500 (   380 PWs)   bands (ev):

    -6.3713   0.9331   4.7847   4.7847

          k =-0.5000 0.5000-0.5000 (   392 PWs)   bands (ev):

    -5.0631  -2.0266   4.2745   4.2745

          k =-0.3750 0.3750-0.3750 (   386 PWs)   bands (ev):

    -5.5899  -1.0808   4.4061   4.4061

          k =-0.6250 0.6250-0.6250 (   386 PWs)   bands (ev):

    -5.5899  -1.0808   4.4061   4.4061

          k = 0.5000-0.5000 0.5000 (   392 PWs)   bands (ev):

    -5.0631  -2.0266   4.2745   4.2745

          k = 0.2500-0.2500 0.2500 (   380 PWs)   bands (ev):

    -6.3713   0.9331   4.7847   4.7847

          k = 0.0000 0.2500 0.0000 (   371 PWs)   bands (ev):

    -6.8377   3.4276   4.7783   4.7783

          k =-0.2500 0.5000-0.2500 (   380 PWs)   bands (ev):

    -5.7002  -0.5197   3.4737   3.9103

          k =-0.1250 0.3750-0.1250 (   378 PWs)   bands (ev):

    -6.4209   1.5149   4.1559   4.2184

          k =-0.3750 0.6250-0.3750 (   385 PWs)   bands (ev):

    -4.9694  -1.8887   3.0062   3.9143

          k =-0.2500 0.5000-0.2500 (   380 PWs)   bands (ev):

    -5.7002  -0.5197   3.4737   3.9103

          k =-0.5000 0.7500-0.5000 (   385 PWs)   bands (ev):

    -5.1713  -1.5527   2.8545   4.2181

          k = 0.6250-0.3750 0.6250 (   385 PWs)   bands (ev):

    -4.9694  -1.8887   3.0062   3.9143

          k = 0.3750-0.1250 0.3750 (   382 PWs)   bands (ev):

    -5.9709   0.1216   3.0875   4.7471

          k = 0.5000-0.2500 0.5000 (   385 PWs)   bands (ev):

    -5.1713  -1.5527   2.8545   4.2181

          k = 0.2500 0.0000 0.2500 (   381 PWs)   bands (ev):

    -6.6005   2.0881   3.8962   5.2857

          k = 0.3750-0.1250 0.3750 (   382 PWs)   bands (ev):

    -5.9709   0.1216   3.0875   4.7471

          k = 0.1250 0.1250 0.1250 (   369 PWs)   bands (ev):

    -6.8990   3.4162   5.3240   5.3240

          k = 0.2500 0.0000 0.2500 (   381 PWs)   bands (ev):

    -6.6005   2.0881   3.8962   5.2857

          k = 0.0000 0.2500 0.0000 (   371 PWs)   bands (ev):

    -6.8377   3.4276   4.7783   4.7783

          k = 0.0000 0.5000 0.0000 (   375 PWs)   bands (ev):

    -6.1141   0.9704   3.6158   3.6158

          k =-0.2500 0.7500-0.2500 (   390 PWs)   bands (ev):

    -4.6638  -1.7869   1.8793   3.2585

          k =-0.1250 0.6250-0.1250 (   386 PWs)   bands (ev):

    -5.4768  -0.4424   2.7764   3.2683

          k =-0.3750 0.8750-0.3750 (   389 PWs)   bands (ev):

    -4.5025  -2.0038   1.4413   3.5832

          k = 0.7500-0.2500 0.7500 (   390 PWs)   bands (ev):

    -4.6638  -1.7869   1.8793   3.2585

          k = 0.5000 0.0000 0.5000 (   379 PWs)   bands (ev):

    -5.2654  -0.9120   1.7274   4.1647

          k = 0.6250-0.1250 0.6250 (   389 PWs)   bands (ev):

    -4.5025  -2.0038   1.4413   3.5832

          k = 0.3750 0.1250 0.3750 (   382 PWs)   bands (ev):

    -5.9709   0.1216   3.0875   4.7471

          k = 0.5000 0.0000 0.5000 (   379 PWs)   bands (ev):

    -5.2654  -0.9120   1.7274   4.1647

          k = 0.2500 0.2500 0.2500 (   380 PWs)   bands (ev):

    -6.3713   0.9331   4.7847   4.7847

          k = 0.0000 0.7500 0.0000 (   387 PWs)   bands (ev):

    -4.9220  -1.2993   2.8473   2.8473

          k =-0.2500 1.0000-0.2500 (   391 PWs)   bands (ev):

    -3.7582  -2.7041   1.2441   3.0260

          k = 0.8750-0.1250 0.8750 (   385 PWs)   bands (ev):

    -4.1054  -2.3618   2.0535   2.7619

          k = 0.6250 0.1250 0.6250 (   389 PWs)   bands (ev):

    -4.5025  -2.0038   1.4413   3.5832

          k = 0.7500 0.0000 0.7500 (   391 PWs)   bands (ev):

    -3.7582  -2.7041   1.2441   3.0260

          k = 0.5000 0.2500 0.5000 (   385 PWs)   bands (ev):

    -5.1713  -1.5527   2.8545   4.2181

          k = 0.0000-1.0000 0.0000 (   388 PWs)   bands (ev):

    -3.2950  -3.2950   2.5840   2.5840

          k =-0.2500-0.7500-0.2500 (   390 PWs)   bands (ev):

    -4.6638  -1.7869   1.8793   3.2585

          k =-0.2500 0.5000 0.0000 (   378 PWs)   bands (ev):

    -5.8960   0.2842   2.7661   4.0480

          k =-0.5000 0.7500-0.2500 (   384 PWs)   bands (ev):

    -4.5609  -2.0599   1.8876   3.3352

          k = 0.6250-0.3750 0.8750 (   386 PWs)   bands (ev):

    -5.1106  -1.2162   2.0692   3.5553

          k = 0.3750-0.1250 0.6250 (   386 PWs)   bands (ev):

    -5.1106  -1.2162   2.0692   3.5553

          k = 0.5000-0.2500 0.7500 (   384 PWs)   bands (ev):

    -4.5609  -2.0599   1.8876   3.3352

          k = 0.2500 0.0000 0.5000 (   378 PWs)   bands (ev):

    -5.8960   0.2842   2.7661   4.0480

          k = 0.7500-0.2500 1.0000 (   391 PWs)   bands (ev):

    -4.7536  -1.5130   2.1103   2.7390

          k = 0.5000 0.0000 0.7500 (   385 PWs)   bands (ev):

    -4.3080  -2.0709   1.2912   2.9084

          k = 0.6250-0.1250 0.8750 (   388 PWs)   bands (ev):

    -3.9859  -2.4352   1.4483   2.5395

          k = 0.3750 0.1250 0.6250 (   386 PWs)   bands (ev):

    -5.1106  -1.2162   2.0692   3.5553

          k = 0.5000 0.0000 0.7500 (   385 PWs)   bands (ev):

    -4.3080  -2.0709   1.2912   2.9084

          k = 0.2500 0.2500 0.5000 (   380 PWs)   bands (ev):

    -5.7002  -0.5197   3.4737   3.9103

          k =-0.2500-1.0000 0.0000 (   384 PWs)   bands (ev):

    -3.2454  -3.2454   2.0760   2.0760

          k =-0.5000-0.7500-0.2500 (   384 PWs)   bands (ev):

    -4.5609  -2.0599   1.8876   3.3352

          k =-0.5000-1.0000 0.0000 (   380 PWs)   bands (ev):

    -3.1931  -3.1931   1.6867   1.6867

          k =-0.7500-0.7500-0.2500 (   390 PWs)   bands (ev):

    -4.6638  -1.7869   1.8793   3.2585

          k = 0.1250-0.1250-0.1250 (   369 PWs)   bands (ev):

    -6.8990   3.4162   5.3240   5.3240

          k =-0.1250 0.1250-0.3750 (   378 PWs)   bands (ev):

    -6.4209   1.5149   4.1559   4.2184

          k = 0.1250-0.1250 0.1250 (   369 PWs)   bands (ev):

    -6.8990   3.4162   5.3240   5.3240

          k =-0.1250 0.1250-0.1250 (   369 PWs)   bands (ev):

    -6.8990   3.4162   5.3240   5.3240

          k =-0.1250 0.1250 0.1250 (   369 PWs)   bands (ev):

    -6.8990   3.4162   5.3240   5.3240

          k =-0.3750 0.3750-0.1250 (   382 PWs)   bands (ev):

    -5.9709   0.1216   3.0875   4.7471

          k = 0.2500-0.2500-0.2500 (   380 PWs)   bands (ev):

    -6.3713   0.9331   4.7847   4.7847

          k = 0.0000 0.0000-0.5000 (   375 PWs)   bands (ev):

    -6.1141   0.9704   3.6158   3.6158

          k = 0.2500-0.2500 0.2500 (   380 PWs)   bands (ev):

    -6.3713   0.9331   4.7847   4.7847

          k = 0.0000 0.0000 0.0000 (   387 PWs)   bands (ev):

    -7.0800   5.6536   5.6536   5.6536

          k =-0.2500 0.2500 0.2500 (   380 PWs)   bands (ev):

    -6.3713   0.9331   4.7847   4.7847

          k =-0.5000 0.5000 0.0000 (   379 PWs)   bands (ev):

    -5.2654  -0.9120   1.7274   4.1647

          k = 0.3750-0.3750-0.3750 (   386 PWs)   bands (ev):

    -5.5899  -1.0808   4.4061   4.4061

          k = 0.1250-0.1250-0.6250 (   386 PWs)   bands (ev):

    -5.4768  -0.4424   2.7764   3.2683

          k = 0.3750-0.3750 0.3750 (   386 PWs)   bands (ev):

    -5.5899  -1.0808   4.4061   4.4061

          k = 0.1250-0.1250 0.1250 (   369 PWs)   bands (ev):

    -6.8990   3.4162   5.3240   5.3240

          k =-0.3750 0.3750 0.3750 (   386 PWs)   bands (ev):

    -5.5899  -1.0808   4.4061   4.4061

          k =-0.6250 0.6250 0.1250 (   389 PWs)   bands (ev):

    -4.5025  -2.0038   1.4413   3.5832

          k =-0.5000 0.5000 0.5000 (   392 PWs)   bands (ev):

    -5.0631  -2.0266   4.2745   4.2745

          k =-0.7500 0.7500 0.2500 (   390 PWs)   bands (ev):

    -4.6638  -1.7869   1.8793   3.2585

          k = 0.0000 0.0000 0.2500 (   371 PWs)   bands (ev):

    -6.8377   3.4276   4.7783   4.7783

          k =-0.2500 0.2500 0.0000 (   381 PWs)   bands (ev):

    -6.6005   2.0881   3.8962   5.2857

          k = 0.1250-0.1250-0.3750 (   378 PWs)   bands (ev):

    -6.4209   1.5149   4.1559   4.2184

          k =-0.1250 0.1250-0.6250 (   386 PWs)   bands (ev):

    -5.4768  -0.4424   2.7764   3.2683

          k = 0.1250-0.1250 0.3750 (   378 PWs)   bands (ev):

    -6.4209   1.5149   4.1559   4.2184

          k =-0.1250 0.1250 0.1250 (   369 PWs)   bands (ev):

    -6.8990   3.4162   5.3240   5.3240

          k = 0.1250-0.3750-0.1250 (   378 PWs)   bands (ev):

    -6.4209   1.5149   4.1559   4.2184

          k =-0.1250-0.1250-0.3750 (   378 PWs)   bands (ev):

    -6.4209   1.5149   4.1559   4.2184

          k =-0.1250 0.3750 0.1250 (   378 PWs)   bands (ev):

    -6.4209   1.5149   4.1559   4.2184

          k =-0.3750 0.6250-0.1250 (   386 PWs)   bands (ev):

    -5.1106  -1.2162   2.0692   3.5553

          k =-0.1250-0.3750-0.1250 (   378 PWs)   bands (ev):

    -6.4209   1.5149   4.1559   4.2184

          k =-0.3750-0.1250-0.3750 (   382 PWs)   bands (ev):

    -5.9709   0.1216   3.0875   4.7471

          k = 0.2500-0.2500-0.5000 (   380 PWs)   bands (ev):

    -5.7002  -0.5197   3.4737   3.9103

          k = 0.0000 0.0000-0.7500 (   387 PWs)   bands (ev):

    -4.9220  -1.2993   2.8473   2.8473

          k = 0.2500-0.2500 0.5000 (   380 PWs)   bands (ev):

    -5.7002  -0.5197   3.4737   3.9103

          k = 0.0000 0.0000 0.2500 (   371 PWs)   bands (ev):

    -6.8377   3.4276   4.7783   4.7783

          k = 0.2500-0.5000-0.2500 (   380 PWs)   bands (ev):

    -5.7002  -0.5197   3.4737   3.9103

          k = 0.0000-0.2500-0.5000 (   378 PWs)   bands (ev):

    -5.8960   0.2842   2.7661   4.0480

          k =-0.2500 0.5000 0.2500 (   380 PWs)   bands (ev):

    -5.7002  -0.5197   3.4737   3.9103

          k =-0.5000 0.7500 0.0000 (   385 PWs)   bands (ev):

    -4.3080  -2.0709   1.2912   2.9084

          k =-0.2500-0.5000-0.2500 (   380 PWs)   bands (ev):

    -5.7002  -0.5197   3.4737   3.9103

          k =-0.5000-0.2500-0.5000 (   385 PWs)   bands (ev):

    -5.1713  -1.5527   2.8545   4.2181

          k =-0.6250 0.6250 0.3750 (   385 PWs)   bands (ev):

    -4.9694  -1.8887   3.0062   3.9143

          k =-0.8750 0.8750 0.1250 (   385 PWs)   bands (ev):

    -4.1054  -2.3618   2.0535   2.7619

          k =-0.6250 0.6250-0.3750 (   385 PWs)   bands (ev):

    -4.9694  -1.8887   3.0062   3.9143

          k =-0.8750 0.8750-0.6250 (   378 PWs)   bands (ev):

    -6.4209   1.5149   4.1559   4.2184

          k =-0.6250 0.3750 0.6250 (   385 PWs)   bands (ev):

    -4.9694  -1.8887   3.0062   3.9143

          k =-0.8750 0.6250 0.3750 (   386 PWs)   bands (ev):

    -5.1106  -1.2162   2.0692   3.5553

          k = 0.6250-0.3750-0.6250 (   385 PWs)   bands (ev):

    -4.9694  -1.8887   3.0062   3.9143

          k = 0.3750-0.1250-0.8750 (   388 PWs)   bands (ev):

    -3.9859  -2.4352   1.4483   2.5395

          k = 0.6250 0.3750 0.6250 (   385 PWs)   bands (ev):

    -4.9694  -1.8887   3.0062   3.9143

          k = 0.3750 0.6250 0.3750 (   385 PWs)   bands (ev):

    -4.9694  -1.8887   3.0062   3.9143

          k =-0.5000 0.5000 0.2500 (   385 PWs)   bands (ev):

    -5.1713  -1.5527   2.8545   4.2181

          k =-0.7500 0.7500 0.0000 (   391 PWs)   bands (ev):

    -3.7582  -2.7041   1.2441   3.0260

          k =-0.5000 0.5000-0.2500 (   385 PWs)   bands (ev):

    -5.1713  -1.5527   2.8545   4.2181

          k =-0.7500 0.7500-0.5000 (   380 PWs)   bands (ev):

    -5.7002  -0.5197   3.4737   3.9103

          k =-0.5000 0.2500 0.5000 (   385 PWs)   bands (ev):

    -5.1713  -1.5527   2.8545   4.2181

          k =-0.7500 0.5000 0.2500 (   384 PWs)   bands (ev):

    -4.5609  -2.0599   1.8876   3.3352

          k = 0.5000-0.2500-0.5000 (   385 PWs)   bands (ev):

    -5.1713  -1.5527   2.8545   4.2181

          k = 0.2500 0.0000-0.7500 (   391 PWs)   bands (ev):

    -4.7536  -1.5130   2.1103   2.7390

          k = 0.5000 0.2500 0.5000 (   385 PWs)   bands (ev):

    -5.1713  -1.5527   2.8545   4.2181

          k = 0.2500 0.5000 0.2500 (   380 PWs)   bands (ev):

    -5.7002  -0.5197   3.4737   3.9103

          k =-0.3750 0.3750 0.1250 (   382 PWs)   bands (ev):

    -5.9709   0.1216   3.0875   4.7471

          k =-0.6250 0.6250-0.1250 (   389 PWs)   bands (ev):

    -4.5025  -2.0038   1.4413   3.5832

          k =-0.3750 0.3750-0.1250 (   382 PWs)   bands (ev):

    -5.9709   0.1216   3.0875   4.7471

          k =-0.6250 0.6250-0.3750 (   385 PWs)   bands (ev):

    -4.9694  -1.8887   3.0062   3.9143

          k =-0.3750 0.1250 0.3750 (   382 PWs)   bands (ev):

    -5.9709   0.1216   3.0875   4.7471

          k =-0.6250 0.3750 0.1250 (   386 PWs)   bands (ev):

    -5.1106  -1.2162   2.0692   3.5553

          k = 0.3750-0.1250-0.3750 (   382 PWs)   bands (ev):

    -5.9709   0.1216   3.0875   4.7471

          k = 0.1250 0.1250-0.6250 (   386 PWs)   bands (ev):

    -5.4768  -0.4424   2.7764   3.2683

          k = 0.3750 0.1250 0.3750 (   382 PWs)   bands (ev):

    -5.9709   0.1216   3.0875   4.7471

          k = 0.1250 0.3750 0.1250 (   378 PWs)   bands (ev):

    -6.4209   1.5149   4.1559   4.2184

          k =-0.2500 0.2500 0.0000 (   381 PWs)   bands (ev):

    -6.6005   2.0881   3.8962   5.2857

          k =-0.5000 0.5000-0.2500 (   385 PWs)   bands (ev):

    -5.1713  -1.5527   2.8545   4.2181

          k =-0.2500 0.0000 0.2500 (   381 PWs)   bands (ev):

    -6.6005   2.0881   3.8962   5.2857

          k =-0.5000 0.2500 0.0000 (   378 PWs)   bands (ev):

    -5.8960   0.2842   2.7661   4.0480

          k = 0.0000 0.0000 0.5000 (   375 PWs)   bands (ev):

    -6.1141   0.9704   3.6158   3.6158

          k =-0.2500 0.2500 0.2500 (   380 PWs)   bands (ev):

    -6.3713   0.9331   4.7847   4.7847

          k = 0.1250-0.1250-0.6250 (   386 PWs)   bands (ev):

    -5.4768  -0.4424   2.7764   3.2683

          k =-0.1250 0.1250-0.8750 (   385 PWs)   bands (ev):

    -4.1054  -2.3618   2.0535   2.7619

          k = 0.1250-0.1250 0.6250 (   386 PWs)   bands (ev):

    -5.4768  -0.4424   2.7764   3.2683

          k =-0.1250 0.1250 0.3750 (   378 PWs)   bands (ev):

    -6.4209   1.5149   4.1559   4.2184

          k = 0.1250-0.6250-0.1250 (   386 PWs)   bands (ev):

    -5.4768  -0.4424   2.7764   3.2683

          k =-0.1250-0.3750-0.3750 (   382 PWs)   bands (ev):

    -5.9709   0.1216   3.0875   4.7471

          k =-0.1250 0.6250 0.1250 (   386 PWs)   bands (ev):

    -5.4768  -0.4424   2.7764   3.2683

          k =-0.3750 0.8750-0.1250 (   388 PWs)   bands (ev):

    -3.9859  -2.4352   1.4483   2.5395

          k =-0.1250-0.6250-0.1250 (   386 PWs)   bands (ev):

    -5.4768  -0.4424   2.7764   3.2683

          k =-0.3750-0.3750-0.3750 (   386 PWs)   bands (ev):

    -5.5899  -1.0808   4.4061   4.4061

          k =-0.7500 0.7500 0.2500 (   390 PWs)   bands (ev):

    -4.6638  -1.7869   1.8793   3.2585

          k =-1.0000 1.0000 0.0000 (   388 PWs)   bands (ev):

    -3.2950  -3.2950   2.5840   2.5840

          k =-0.7500 0.7500-0.2500 (   390 PWs)   bands (ev):

    -4.6638  -1.7869   1.8793   3.2585

          k =-1.0000 1.0000-0.5000 (   375 PWs)   bands (ev):

    -6.1141   0.9704   3.6158   3.6158

          k =-0.7500 0.2500 0.7500 (   390 PWs)   bands (ev):

    -4.6638  -1.7869   1.8793   3.2585

          k =-1.0000 0.5000 0.5000 (   379 PWs)   bands (ev):

    -5.2654  -0.9120   1.7274   4.1647

          k = 0.7500-0.2500-0.7500 (   390 PWs)   bands (ev):

    -4.6638  -1.7869   1.8793   3.2585

          k = 0.5000 0.0000-1.0000 (   380 PWs)   bands (ev):

    -3.1931  -3.1931   1.6867   1.6867

          k = 0.7500 0.2500 0.7500 (   390 PWs)   bands (ev):

    -4.6638  -1.7869   1.8793   3.2585

          k = 0.5000 0.5000 0.5000 (   392 PWs)   bands (ev):

    -5.0631  -2.0266   4.2745   4.2745

          k =-0.6250 0.6250 0.1250 (   389 PWs)   bands (ev):

    -4.5025  -2.0038   1.4413   3.5832

          k =-0.8750 0.8750-0.1250 (   385 PWs)   bands (ev):

    -4.1054  -2.3618   2.0535   2.7619

          k =-0.6250 0.6250-0.1250 (   389 PWs)   bands (ev):

    -4.5025  -2.0038   1.4413   3.5832

          k =-0.8750 0.8750-0.3750 (   386 PWs)   bands (ev):

    -5.4768  -0.4424   2.7764   3.2683

          k =-0.6250 0.1250 0.6250 (   389 PWs)   bands (ev):

    -4.5025  -2.0038   1.4413   3.5832

          k =-0.8750 0.3750 0.3750 (   389 PWs)   bands (ev):

    -4.5025  -2.0038   1.4413   3.5832

          k = 0.6250-0.1250-0.6250 (   389 PWs)   bands (ev):

    -4.5025  -2.0038   1.4413   3.5832

          k = 0.3750 0.1250-0.8750 (   388 PWs)   bands (ev):

    -3.9859  -2.4352   1.4483   2.5395

          k = 0.6250 0.1250 0.6250 (   389 PWs)   bands (ev):

    -4.5025  -2.0038   1.4413   3.5832

          k = 0.3750 0.3750 0.3750 (   386 PWs)   bands (ev):

    -5.5899  -1.0808   4.4061   4.4061

          k =-0.5000 0.5000 0.0000 (   379 PWs)   bands (ev):

    -5.2654  -0.9120   1.7274   4.1647

          k =-0.7500 0.7500-0.2500 (   390 PWs)   bands (ev):

    -4.6638  -1.7869   1.8793   3.2585

          k =-0.5000 0.0000 0.5000 (   379 PWs)   bands (ev):

    -5.2654  -0.9120   1.7274   4.1647

          k =-0.7500 0.2500 0.2500 (   390 PWs)   bands (ev):

    -4.6638  -1.7869   1.8793   3.2585

          k = 0.0000 0.0000 0.7500 (   387 PWs)   bands (ev):

    -4.9220  -1.2993   2.8473   2.8473

          k =-0.2500 0.2500 0.5000 (   380 PWs)   bands (ev):

    -5.7002  -0.5197   3.4737   3.9103

          k =-0.8750 0.8750 0.1250 (   385 PWs)   bands (ev):

    -4.1054  -2.3618   2.0535   2.7619

          k =-1.1250 1.1250-0.1250 (   385 PWs)   bands (ev):

    -4.1054  -2.3618   2.0535   2.7619

          k =-0.8750 0.8750-0.1250 (   385 PWs)   bands (ev):

    -4.1054  -2.3618   2.0535   2.7619

          k =-1.1250 1.1250-0.3750 (   386 PWs)   bands (ev):

    -5.4768  -0.4424   2.7764   3.2683

          k =-0.8750 0.1250 0.8750 (   385 PWs)   bands (ev):

    -4.1054  -2.3618   2.0535   2.7619

          k =-1.1250 0.3750 0.6250 (   386 PWs)   bands (ev):

    -5.1106  -1.2162   2.0692   3.5553

          k = 0.8750-0.1250-0.8750 (   385 PWs)   bands (ev):

    -4.1054  -2.3618   2.0535   2.7619

          k = 0.6250 0.1250-1.1250 (   388 PWs)   bands (ev):

    -3.9859  -2.4352   1.4483   2.5395

          k = 0.8750 0.1250 0.8750 (   385 PWs)   bands (ev):

    -4.1054  -2.3618   2.0535   2.7619

          k = 0.6250 0.3750 0.6250 (   385 PWs)   bands (ev):

    -4.9694  -1.8887   3.0062   3.9143

          k =-0.7500 0.7500 0.0000 (   391 PWs)   bands (ev):

    -3.7582  -2.7041   1.2441   3.0260

          k =-1.0000 1.0000-0.2500 (   387 PWs)   bands (ev):

    -4.9220  -1.2993   2.8473   2.8473

          k =-0.7500 0.0000 0.7500 (   391 PWs)   bands (ev):

    -3.7582  -2.7041   1.2441   3.0260

          k =-1.0000 0.2500 0.5000 (   385 PWs)   bands (ev):

    -4.3080  -2.0709   1.2912   2.9084

          k = 0.2500 0.0000-0.5000 (   378 PWs)   bands (ev):

    -5.8960   0.2842   2.7661   4.0480

          k = 0.0000 0.2500-0.7500 (   391 PWs)   bands (ev):

    -4.7536  -1.5130   2.1103   2.7390

          k = 0.2500 0.0000 0.5000 (   378 PWs)   bands (ev):

    -5.8960   0.2842   2.7661   4.0480

          k = 0.0000 0.2500 0.2500 (   381 PWs)   bands (ev):

    -6.6005   2.0881   3.8962   5.2857

          k = 0.0000-0.5000-0.2500 (   378 PWs)   bands (ev):

    -5.8960   0.2842   2.7661   4.0480

          k =-0.2500-0.2500-0.5000 (   380 PWs)   bands (ev):

    -5.7002  -0.5197   3.4737   3.9103

          k =-0.6250 0.8750 0.3750 (   386 PWs)   bands (ev):

    -5.1106  -1.2162   2.0692   3.5553

          k =-0.8750 1.1250 0.1250 (   385 PWs)   bands (ev):

    -4.1054  -2.3618   2.0535   2.7619

          k =-0.6250 0.8750-0.3750 (   386 PWs)   bands (ev):

    -5.1106  -1.2162   2.0692   3.5553

          k =-0.8750 1.1250-0.6250 (   378 PWs)   bands (ev):

    -6.4209   1.5149   4.1559   4.2184

          k =-0.6250 0.3750 0.8750 (   386 PWs)   bands (ev):

    -5.1106  -1.2162   2.0692   3.5553

          k =-0.8750 0.6250 0.6250 (   382 PWs)   bands (ev):

    -5.9709   0.1216   3.0875   4.7471

          k = 0.8750-0.3750-0.6250 (   386 PWs)   bands (ev):

    -5.1106  -1.2162   2.0692   3.5553

          k = 0.6250-0.1250-0.8750 (   388 PWs)   bands (ev):

    -3.9859  -2.4352   1.4483   2.5395

          k =-0.8750-0.3750 0.6250 (   386 PWs)   bands (ev):

    -5.1106  -1.2162   2.0692   3.5553

          k =-1.1250-0.1250 0.3750 (   388 PWs)   bands (ev):

    -3.9859  -2.4352   1.4483   2.5395

          k = 0.8750 0.3750 0.6250 (   386 PWs)   bands (ev):

    -5.1106  -1.2162   2.0692   3.5553

          k = 0.6250 0.6250 0.3750 (   385 PWs)   bands (ev):

    -4.9694  -1.8887   3.0062   3.9143

          k =-0.8750 0.3750 0.6250 (   386 PWs)   bands (ev):

    -5.1106  -1.2162   2.0692   3.5553

          k =-1.1250 0.6250 0.3750 (   386 PWs)   bands (ev):

    -5.1106  -1.2162   2.0692   3.5553

          k =-0.5000 0.7500 0.2500 (   384 PWs)   bands (ev):

    -4.5609  -2.0599   1.8876   3.3352

          k =-0.7500 1.0000 0.0000 (   384 PWs)   bands (ev):

    -3.2454  -3.2454   2.0760   2.0760

          k =-0.5000 0.2500 0.7500 (   384 PWs)   bands (ev):

    -4.5609  -2.0599   1.8876   3.3352

          k =-0.7500 0.5000 0.5000 (   385 PWs)   bands (ev):

    -5.1713  -1.5527   2.8545   4.2181

          k = 0.7500-0.2500-0.5000 (   384 PWs)   bands (ev):

    -4.5609  -2.0599   1.8876   3.3352

          k = 0.5000 0.0000-0.7500 (   385 PWs)   bands (ev):

    -4.3080  -2.0709   1.2912   2.9084

          k =-0.7500 1.0000 0.2500 (   391 PWs)   bands (ev):

    -4.7536  -1.5130   2.1103   2.7390

          k =-1.0000 1.2500 0.0000 (   384 PWs)   bands (ev):

    -3.2454  -3.2454   2.0760   2.0760

          k =-0.7500 1.0000-0.2500 (   391 PWs)   bands (ev):

    -4.7536  -1.5130   2.1103   2.7390

          k =-1.0000 1.2500-0.5000 (   378 PWs)   bands (ev):

    -5.8960   0.2842   2.7661   4.0480

          k = 1.0000 0.2500 0.7500 (   391 PWs)   bands (ev):

    -4.7536  -1.5130   2.1103   2.7390

          k = 0.7500 0.5000 0.5000 (   385 PWs)   bands (ev):

    -5.1713  -1.5527   2.8545   4.2181

          k =-0.6250 0.8750 0.1250 (   388 PWs)   bands (ev):

    -3.9859  -2.4352   1.4483   2.5395

          k =-0.8750 1.1250-0.1250 (   385 PWs)   bands (ev):

    -4.1054  -2.3618   2.0535   2.7619

          k =-0.6250 0.8750-0.1250 (   388 PWs)   bands (ev):

    -3.9859  -2.4352   1.4483   2.5395

          k =-0.8750 1.1250-0.3750 (   386 PWs)   bands (ev):

    -5.4768  -0.4424   2.7764   3.2683

          k =-0.6250 0.1250 0.8750 (   388 PWs)   bands (ev):

    -3.9859  -2.4352   1.4483   2.5395

          k =-0.8750 0.3750 0.6250 (   386 PWs)   bands (ev):

    -5.1106  -1.2162   2.0692   3.5553

          k = 0.8750-0.1250-0.6250 (   388 PWs)   bands (ev):

    -3.9859  -2.4352   1.4483   2.5395

          k = 0.6250 0.1250-0.8750 (   388 PWs)   bands (ev):

    -3.9859  -2.4352   1.4483   2.5395

          k =-0.8750-0.1250 0.6250 (   388 PWs)   bands (ev):

    -3.9859  -2.4352   1.4483   2.5395

          k =-1.1250 0.1250 0.3750 (   388 PWs)   bands (ev):

    -3.9859  -2.4352   1.4483   2.5395

          k = 0.8750 0.1250 0.6250 (   388 PWs)   bands (ev):

    -3.9859  -2.4352   1.4483   2.5395

          k = 0.6250 0.3750 0.3750 (   385 PWs)   bands (ev):

    -4.9694  -1.8887   3.0062   3.9143

          k =-0.8750 0.1250 0.6250 (   388 PWs)   bands (ev):

    -3.9859  -2.4352   1.4483   2.5395

          k =-1.1250 0.3750 0.3750 (   389 PWs)   bands (ev):

    -4.5025  -2.0038   1.4413   3.5832

          k =-0.5000 0.7500 0.0000 (   385 PWs)   bands (ev):

    -4.3080  -2.0709   1.2912   2.9084

          k =-0.7500 1.0000-0.2500 (   391 PWs)   bands (ev):

    -4.7536  -1.5130   2.1103   2.7390

          k =-0.5000 0.0000 0.7500 (   385 PWs)   bands (ev):

    -4.3080  -2.0709   1.2912   2.9084

          k =-0.7500 0.2500 0.5000 (   384 PWs)   bands (ev):

    -4.5609  -2.0599   1.8876   3.3352

          k =-0.7500 0.0000 0.5000 (   385 PWs)   bands (ev):

    -4.3080  -2.0709   1.2912   2.9084

          k =-1.0000 0.2500 0.2500 (   391 PWs)   bands (ev):

    -3.7582  -2.7041   1.2441   3.0260

          k = 0.2500 0.0000 1.0000 (   384 PWs)   bands (ev):

    -3.2454  -3.2454   2.0760   2.0760

          k = 0.0000 0.2500 0.7500 (   391 PWs)   bands (ev):

    -4.7536  -1.5130   2.1103   2.7390

     Writing output data file ge.save

                                                                                

     bravais-lattice index     =            2
     lattice parameter (alat)  =      10.6000  a.u.
     unit-cell volume          =     297.7540 (a.u.)^3
     number of atoms/cell      =            2
     number of atomic types    =            1
     kinetic-energy cut-off    =      18.0000  Ry
     charge density cut-off    =      72.0000  Ry
     convergence threshold     =      1.0E-12
     beta                      =       0.7000
     number of iterations used =            4
     Exchange-correlation      =  SLA  PZ   NOGX NOGC ( 1 1 0 0 0)
     EXX-fraction              =        0.00


     celldm(1)=   10.60000  celldm(2)=    0.00000  celldm(3)=    0.00000
     celldm(4)=    0.00000  celldm(5)=    0.00000  celldm(6)=    0.00000

     crystal axes: (cart. coord. in units of alat)
               a(1) = ( -0.5000  0.0000  0.5000 )  
               a(2) = (  0.0000  0.5000  0.5000 )  
               a(3) = ( -0.5000  0.5000  0.0000 )  

     reciprocal axes: (cart. coord. in units 2 pi/alat)
               b(1) = ( -1.0000 -1.0000  1.0000 )  
               b(2) = (  1.0000  1.0000  1.0000 )  
               b(3) = ( -1.0000  1.0000 -1.0000 )  


     Atoms inside the unit cell: 

   Cartesian axes

     site n.  atom      mass           positions (alat units)
        1        Ge  72.6100   tau( 1) = (    0.00000    0.00000    0.00000  )
        2        Ge  72.6100   tau( 2) = (    0.25000    0.25000    0.25000  )

     Computing dynamical matrix for 
                    q = (  -0.2500000   0.2500000  -0.2500000 )
 
      6 Sym.Ops. (no q -> -q+G )


     G cutoff =  204.9201  (    779 G-vectors)     FFT grid: ( 24, 24, 24)
     number of k points=   240

     PseudoPot. # 1 for Ge read from file:
     /home/ywg/QuantumEspresso/pseudo/Ge.pz-bhs.UPF
     MD5 check sum: bb78d5f8e158bcc491d4c705bdf69fa7
     Pseudo is Norm-conserving, Zval =  4.0
     Generated by new atomic code, or converted to UPF format
     Using radial grid of  291 points,  2 beta functions with: 
                l(1) =   0
                l(2) =   1


     Atomic displacements:
     There are   4 irreducible representations

     Representation     1      1 modes -A_1  L_1 To be done

     Representation     2      1 modes -A_1  L_1 To be done

     Representation     3      2 modes -E    L_3 To be done

     Representation     4      2 modes -E    L_3 To be done



     Alpha used in Ewald sum =   0.7000
     PHONON       :  1m 3.42s CPU     1m24.21s WALL



     Representation #  1 mode #   1

     Self-consistent Calculation

      iter #   1 total cpu time :    85.2 secs   av.it.:   6.2
      thresh= 0.100E-01 alpha_mix =  0.700 |ddv_scf|^2 =  0.131E-02

      iter #   2 total cpu time :    88.3 secs   av.it.:   8.0
      thresh= 0.361E-02 alpha_mix =  0.700 |ddv_scf|^2 =  0.203E-01

      iter #   3 total cpu time :    89.4 secs   av.it.:   6.8
      thresh= 0.100E-01 alpha_mix =  0.700 |ddv_scf|^2 =  0.640E-06

      iter #   4 total cpu time :    90.5 secs   av.it.:   8.6
      thresh= 0.800E-04 alpha_mix =  0.700 |ddv_scf|^2 =  0.604E-07

      iter #   5 total cpu time :    92.6 secs   av.it.:   8.3
      thresh= 0.246E-04 alpha_mix =  0.700 |ddv_scf|^2 =  0.123E-09

      iter #   6 total cpu time :    93.9 secs   av.it.:   8.6
      thresh= 0.111E-05 alpha_mix =  0.700 |ddv_scf|^2 =  0.260E-09

      iter #   7 total cpu time :    94.9 secs   av.it.:   7.0
      thresh= 0.161E-05 alpha_mix =  0.700 |ddv_scf|^2 =  0.624E-11

      iter #   8 total cpu time :    96.0 secs   av.it.:   8.1
      thresh= 0.250E-06 alpha_mix =  0.700 |ddv_scf|^2 =  0.222E-13

     End of self-consistent calculation

     Convergence has been achieved 


     Representation #  2 mode #   2

     Self-consistent Calculation

      iter #   1 total cpu time :    97.7 secs   av.it.:   6.2
      thresh= 0.100E-01 alpha_mix =  0.700 |ddv_scf|^2 =  0.131E-02

      iter #   2 total cpu time :    98.8 secs   av.it.:   8.0
      thresh= 0.361E-02 alpha_mix =  0.700 |ddv_scf|^2 =  0.203E-01

      iter #   3 total cpu time :    99.8 secs   av.it.:   6.8
      thresh= 0.100E-01 alpha_mix =  0.700 |ddv_scf|^2 =  0.641E-06

      iter #   4 total cpu time :   100.9 secs   av.it.:   8.6
      thresh= 0.801E-04 alpha_mix =  0.700 |ddv_scf|^2 =  0.604E-07

      iter #   5 total cpu time :   102.0 secs   av.it.:   8.3
      thresh= 0.246E-04 alpha_mix =  0.700 |ddv_scf|^2 =  0.113E-09

      iter #   6 total cpu time :   103.2 secs   av.it.:   8.7
      thresh= 0.106E-05 alpha_mix =  0.700 |ddv_scf|^2 =  0.211E-09

      iter #   7 total cpu time :   104.2 secs   av.it.:   7.0
      thresh= 0.145E-05 alpha_mix =  0.700 |ddv_scf|^2 =  0.697E-11

      iter #   8 total cpu time :   105.2 secs   av.it.:   8.1
      thresh= 0.264E-06 alpha_mix =  0.700 |ddv_scf|^2 =  0.205E-13

     End of self-consistent calculation

     Convergence has been achieved 


     Representation #  3 modes #   3  4

     Self-consistent Calculation

      iter #   1 total cpu time :   108.0 secs   av.it.:   5.7
      thresh= 0.100E-01 alpha_mix =  0.700 |ddv_scf|^2 =  0.227E-06

      iter #   2 total cpu time :   110.6 secs   av.it.:  10.2
      thresh= 0.476E-04 alpha_mix =  0.700 |ddv_scf|^2 =  0.607E-08

      iter #   3 total cpu time :   114.4 secs   av.it.:   9.9
      thresh= 0.779E-05 alpha_mix =  0.700 |ddv_scf|^2 =  0.169E-10

      iter #   4 total cpu time :   117.9 secs   av.it.:   9.9
      thresh= 0.411E-06 alpha_mix =  0.700 |ddv_scf|^2 =  0.114E-11

[...]

    -6.6005   2.0881   3.8962   5.2857

          k =-0.5000-0.7500 0.2500 (   384 PWs)   bands (ev):

    -4.5609  -2.0599   1.8876   3.3352

          k = 0.5000 0.0000 0.0000 (   375 PWs)   bands (ev):

    -6.1141   0.9704   3.6158   3.6158

          k = 0.0000-1.0000 0.0000 (   388 PWs)   bands (ev):

    -3.2950  -3.2950   2.5840   2.5840

          k = 0.1250-0.6250 0.1250 (   386 PWs)   bands (ev):

    -5.4768  -0.4424   2.7764   3.2683

          k =-0.3750-1.6250 0.1250 (   382 PWs)   bands (ev):

    -5.9709   0.1216   3.0875   4.7471

          k = 0.6250-0.1250-0.1250 (   386 PWs)   bands (ev):

    -5.4768  -0.4424   2.7764   3.2683

          k = 0.1250-1.1250-0.1250 (   385 PWs)   bands (ev):

    -4.1054  -2.3618   2.0535   2.7619

          k =-0.7500 0.2500-0.7500 (   390 PWs)   bands (ev):

    -4.6638  -1.7869   1.8793   3.2585

          k =-1.2500-0.7500-0.7500 (   380 PWs)   bands (ev):

    -6.3713   0.9331   4.7847   4.7847

          k =-0.2500 0.7500 0.7500 (   390 PWs)   bands (ev):

    -4.6638  -1.7869   1.8793   3.2585

          k =-0.7500-0.2500 0.7500 (   390 PWs)   bands (ev):

    -4.6638  -1.7869   1.8793   3.2585

          k =-0.6250 0.1250-0.6250 (   389 PWs)   bands (ev):

    -4.5025  -2.0038   1.4413   3.5832

          k =-1.1250-0.8750-0.6250 (   378 PWs)   bands (ev):

    -6.4209   1.5149   4.1559   4.2184

          k =-0.1250 0.6250 0.6250 (   389 PWs)   bands (ev):

    -4.5025  -2.0038   1.4413   3.5832

          k =-0.6250-0.3750 0.6250 (   385 PWs)   bands (ev):

    -4.9694  -1.8887   3.0062   3.9143

          k =-0.5000 0.0000-0.5000 (   379 PWs)   bands (ev):

    -5.2654  -0.9120   1.7274   4.1647

          k =-1.0000-1.0000-0.5000 (   375 PWs)   bands (ev):

    -6.1141   0.9704   3.6158   3.6158

          k = 0.0000 0.5000 0.5000 (   379 PWs)   bands (ev):

    -5.2654  -0.9120   1.7274   4.1647

          k =-0.5000-0.5000 0.5000 (   392 PWs)   bands (ev):

    -5.0631  -2.0266   4.2745   4.2745

          k = 0.7500 0.0000 0.0000 (   387 PWs)   bands (ev):

    -4.9220  -1.2993   2.8473   2.8473

          k = 0.2500-1.0000 0.0000 (   384 PWs)   bands (ev):

    -3.2454  -3.2454   2.0760   2.0760

          k =-0.8750 0.1250-0.8750 (   385 PWs)   bands (ev):

    -4.1054  -2.3618   2.0535   2.7619

          k =-1.3750-0.8750-0.8750 (   378 PWs)   bands (ev):

    -6.4209   1.5149   4.1559   4.2184

          k =-0.1250 0.8750 0.8750 (   385 PWs)   bands (ev):

    -4.1054  -2.3618   2.0535   2.7619

          k =-0.6250-0.1250 0.8750 (   388 PWs)   bands (ev):

    -3.9859  -2.4352   1.4483   2.5395

          k =-0.7500 0.0000-0.7500 (   391 PWs)   bands (ev):

    -3.7582  -2.7041   1.2441   3.0260

          k =-1.2500-1.0000-0.7500 (   381 PWs)   bands (ev):

    -6.6005   2.0881   3.8962   5.2857

          k = 0.0000 0.7500 0.7500 (   391 PWs)   bands (ev):

    -3.7582  -2.7041   1.2441   3.0260

          k =-0.5000-0.2500 0.7500 (   384 PWs)   bands (ev):

    -4.5609  -2.0599   1.8876   3.3352

          k =-1.0000 0.0000 0.0000 (   388 PWs)   bands (ev):

    -3.2950  -3.2950   2.5840   2.5840

          k =-1.5000-1.0000 0.0000 (   380 PWs)   bands (ev):

    -3.1931  -3.1931   1.6867   1.6867

          k = 0.0000-0.5000 0.2500 (   378 PWs)   bands (ev):

    -5.8960   0.2842   2.7661   4.0480

          k =-0.5000-1.5000 0.2500 (   385 PWs)   bands (ev):

    -5.1713  -1.5527   2.8545   4.2181

          k = 0.2500 0.5000 0.0000 (   378 PWs)   bands (ev):

    -5.8960   0.2842   2.7661   4.0480

          k =-0.2500-0.5000 0.0000 (   378 PWs)   bands (ev):

    -5.8960   0.2842   2.7661   4.0480

          k = 0.5000 0.0000-0.2500 (   378 PWs)   bands (ev):

    -5.8960   0.2842   2.7661   4.0480

          k = 0.0000-1.0000-0.2500 (   384 PWs)   bands (ev):

    -3.2454  -3.2454   2.0760   2.0760

          k =-0.5000 0.0000 0.2500 (   378 PWs)   bands (ev):

    -5.8960   0.2842   2.7661   4.0480

          k =-1.0000-1.0000 0.2500 (   387 PWs)   bands (ev):

    -4.9220  -1.2993   2.8473   2.8473

          k =-0.8750 0.3750-0.6250 (   386 PWs)   bands (ev):

    -5.1106  -1.2162   2.0692   3.5553

          k =-1.3750-0.6250-0.6250 (   386 PWs)   bands (ev):

    -5.5899  -1.0808   4.4061   4.4061

          k =-0.6250-0.3750 0.8750 (   386 PWs)   bands (ev):

    -5.1106  -1.2162   2.0692   3.5553

          k =-1.1250-1.3750 0.8750 (   378 PWs)   bands (ev):

    -6.4209   1.5149   4.1559   4.2184

          k = 0.8750 0.3750-0.6250 (   386 PWs)   bands (ev):

    -5.1106  -1.2162   2.0692   3.5553

          k = 0.3750-0.6250-0.6250 (   385 PWs)   bands (ev):

    -4.9694  -1.8887   3.0062   3.9143

          k =-0.3750 0.8750 0.6250 (   386 PWs)   bands (ev):

    -5.1106  -1.2162   2.0692   3.5553

          k =-0.8750-0.1250 0.6250 (   388 PWs)   bands (ev):

    -3.9859  -2.4352   1.4483   2.5395

          k = 0.3750 0.8750-0.6250 (   386 PWs)   bands (ev):

    -5.1106  -1.2162   2.0692   3.5553

          k =-0.1250-0.1250-0.6250 (   386 PWs)   bands (ev):

    -5.4768  -0.4424   2.7764   3.2683

          k =-0.7500 0.2500-0.5000 (   384 PWs)   bands (ev):

    -4.5609  -2.0599   1.8876   3.3352

          k =-1.2500-0.7500-0.5000 (   380 PWs)   bands (ev):

    -5.7002  -0.5197   3.4737   3.9103

          k =-0.5000-0.2500 0.7500 (   384 PWs)   bands (ev):

    -4.5609  -2.0599   1.8876   3.3352

          k =-1.0000-1.2500 0.7500 (   381 PWs)   bands (ev):

    -6.6005   2.0881   3.8962   5.2857

          k = 0.7500 0.2500-0.5000 (   384 PWs)   bands (ev):

    -4.5609  -2.0599   1.8876   3.3352

          k = 0.2500-0.7500-0.5000 (   384 PWs)   bands (ev):

    -4.5609  -2.0599   1.8876   3.3352

          k =-1.0000 0.2500-0.7500 (   391 PWs)   bands (ev):

    -4.7536  -1.5130   2.1103   2.7390

          k =-1.5000-0.7500-0.7500 (   380 PWs)   bands (ev):

    -5.7002  -0.5197   3.4737   3.9103

          k =-0.7500-0.2500 1.0000 (   391 PWs)   bands (ev):

    -4.7536  -1.5130   2.1103   2.7390

          k =-1.2500-1.2500 1.0000 (   381 PWs)   bands (ev):

    -6.6005   2.0881   3.8962   5.2857

          k =-0.2500 1.0000 0.7500 (   391 PWs)   bands (ev):

    -4.7536  -1.5130   2.1103   2.7390

          k =-0.7500 0.0000 0.7500 (   391 PWs)   bands (ev):

    -3.7582  -2.7041   1.2441   3.0260

          k = 0.2500 1.0000-0.7500 (   391 PWs)   bands (ev):

    -4.7536  -1.5130   2.1103   2.7390

          k =-0.2500 0.0000-0.7500 (   391 PWs)   bands (ev):

    -4.7536  -1.5130   2.1103   2.7390

          k =-0.8750 0.1250-0.6250 (   388 PWs)   bands (ev):

    -3.9859  -2.4352   1.4483   2.5395

          k =-1.3750-0.8750-0.6250 (   382 PWs)   bands (ev):

    -5.9709   0.1216   3.0875   4.7471

          k =-0.6250-0.1250 0.8750 (   388 PWs)   bands (ev):

    -3.9859  -2.4352   1.4483   2.5395

          k =-1.1250-1.1250 0.8750 (   369 PWs)   bands (ev):

    -6.8990   3.4162   5.3240   5.3240

          k = 0.8750 0.1250-0.6250 (   388 PWs)   bands (ev):

    -3.9859  -2.4352   1.4483   2.5395

          k = 0.3750-0.8750-0.6250 (   386 PWs)   bands (ev):

    -5.1106  -1.2162   2.0692   3.5553

          k =-0.1250 0.8750 0.6250 (   388 PWs)   bands (ev):

    -3.9859  -2.4352   1.4483   2.5395

          k =-0.6250-0.1250 0.6250 (   389 PWs)   bands (ev):

    -4.5025  -2.0038   1.4413   3.5832

          k = 0.1250 0.8750-0.6250 (   388 PWs)   bands (ev):

    -3.9859  -2.4352   1.4483   2.5395

          k =-0.3750-0.1250-0.6250 (   386 PWs)   bands (ev):

    -5.1106  -1.2162   2.0692   3.5553

          k =-0.7500 0.0000-0.5000 (   385 PWs)   bands (ev):

    -4.3080  -2.0709   1.2912   2.9084

          k =-1.2500-1.0000-0.5000 (   378 PWs)   bands (ev):

    -5.8960   0.2842   2.7661   4.0480

          k =-0.5000 0.0000 0.7500 (   385 PWs)   bands (ev):

    -4.3080  -2.0709   1.2912   2.9084

          k =-1.0000-1.0000 0.7500 (   371 PWs)   bands (ev):

    -6.8377   3.4276   4.7783   4.7783

          k = 0.7500 0.0000-0.5000 (   385 PWs)   bands (ev):

    -4.3080  -2.0709   1.2912   2.9084

          k = 0.2500-1.0000-0.5000 (   385 PWs)   bands (ev):

    -4.3080  -2.0709   1.2912   2.9084

          k = 0.0000 0.7500 0.5000 (   385 PWs)   bands (ev):

    -4.3080  -2.0709   1.2912   2.9084

          k =-0.5000-0.2500 0.5000 (   385 PWs)   bands (ev):

    -5.1713  -1.5527   2.8545   4.2181

          k = 0.0000 1.0000 0.2500 (   384 PWs)   bands (ev):

    -3.2454  -3.2454   2.0760   2.0760

          k =-0.5000 0.0000 0.2500 (   378 PWs)   bands (ev):

    -5.8960   0.2842   2.7661   4.0480

          k = 0.2500-1.0000 0.0000 (   384 PWs)   bands (ev):

    -3.2454  -3.2454   2.0760   2.0760

          k =-0.2500-2.0000 0.0000 (   371 PWs)   bands (ev):

    -6.8377   3.4276   4.7783   4.7783

          k =-1.0000 0.0000-0.2500 (   384 PWs)   bands (ev):

    -3.2454  -3.2454   2.0760   2.0760

          k =-1.5000-1.0000-0.2500 (   385 PWs)   bands (ev):

    -4.3080  -2.0709   1.2912   2.9084

          k = 0.0000 1.0000 0.5000 (   380 PWs)   bands (ev):

    -3.1931  -3.1931   1.6867   1.6867

          k =-0.5000 0.0000 0.5000 (   379 PWs)   bands (ev):

    -5.2654  -0.9120   1.7274   4.1647

          k = 0.5000-1.0000 0.0000 (   380 PWs)   bands (ev):

    -3.1931  -3.1931   1.6867   1.6867

          k = 0.0000-2.0000 0.0000 (   387 PWs)   bands (ev):

    -7.0800   5.6536   5.6536   5.6536

     Writing output data file ge.save

                                                                                

     bravais-lattice index     =            2
     lattice parameter (alat)  =      10.6000  a.u.
     unit-cell volume          =     297.7540 (a.u.)^3
     number of atoms/cell      =            2
     number of atomic types    =            1
     kinetic-energy cut-off    =      18.0000  Ry
     charge density cut-off    =      72.0000  Ry
     convergence threshold     =      1.0E-12
     beta                      =       0.7000
     number of iterations used =            4
     Exchange-correlation      =  SLA  PZ   NOGX NOGC ( 1 1 0 0 0)
     EXX-fraction              =        0.00


     celldm(1)=   10.60000  celldm(2)=    0.00000  celldm(3)=    0.00000
     celldm(4)=    0.00000  celldm(5)=    0.00000  celldm(6)=    0.00000

     crystal axes: (cart. coord. in units of alat)
               a(1) = ( -0.5000  0.0000  0.5000 )  
               a(2) = (  0.0000  0.5000  0.5000 )  
               a(3) = ( -0.5000  0.5000  0.0000 )  

     reciprocal axes: (cart. coord. in units 2 pi/alat)
               b(1) = ( -1.0000 -1.0000  1.0000 )  
               b(2) = (  1.0000  1.0000  1.0000 )  
               b(3) = ( -1.0000  1.0000 -1.0000 )  


     Atoms inside the unit cell: 

   Cartesian axes

     site n.  atom      mass           positions (alat units)
        1        Ge  72.6100   tau( 1) = (    0.00000    0.00000    0.00000  )
        2        Ge  72.6100   tau( 2) = (    0.25000    0.25000    0.25000  )

     Computing dynamical matrix for 
                    q = (  -0.5000000  -1.0000000   0.0000000 )
 
      8 Sym.Ops. (no q -> -q+G )


     G cutoff =  204.9201  (    779 G-vectors)     FFT grid: ( 24, 24, 24)
     number of k points=   174

     PseudoPot. # 1 for Ge read from file:
     /home/ywg/QuantumEspresso/pseudo/Ge.pz-bhs.UPF
     MD5 check sum: bb78d5f8e158bcc491d4c705bdf69fa7
     Pseudo is Norm-conserving, Zval =  4.0
     Generated by new atomic code, or converted to UPF format
     Using radial grid of  291 points,  2 beta functions with: 
                l(1) =   0
                l(2) =   1


     Atomic displacements:
     There are   3 irreducible representations

     Representation     1      2 modes -A_1  L_1 To be done

     Representation     2      2 modes -A_1  L_1 To be done

     Representation     3      2 modes -E    L_3 To be done



     Alpha used in Ewald sum =   0.7000
     PHONON       : 38m49.99s CPU    43m59.55s WALL



     Representation #  1 modes #   1  2

     Self-consistent Calculation

      iter #   1 total cpu time :  2640.8 secs   av.it.:   6.0
      thresh= 0.100E-01 alpha_mix =  0.700 |ddv_scf|^2 =  0.331E-05

      iter #   2 total cpu time :  2642.6 secs   av.it.:  10.0
      thresh= 0.182E-03 alpha_mix =  0.700 |ddv_scf|^2 =  0.147E-05

      iter #   3 total cpu time :  2644.9 secs   av.it.:   9.5
      thresh= 0.121E-03 alpha_mix =  0.700 |ddv_scf|^2 =  0.437E-10

      iter #   4 total cpu time :  2646.7 secs   av.it.:   9.7
      thresh= 0.661E-06 alpha_mix =  0.700 |ddv_scf|^2 =  0.322E-11

      iter #   5 total cpu time :  2649.5 secs   av.it.:   9.6
      thresh= 0.180E-06 alpha_mix =  0.700 |ddv_scf|^2 =  0.147E-13

     End of self-consistent calculation

     Convergence has been achieved 


     Representation #  2 modes #   3  4

     Self-consistent Calculation

      iter #   1 total cpu time :  2650.9 secs   av.it.:   6.0
      thresh= 0.100E-01 alpha_mix =  0.700 |ddv_scf|^2 =  0.466E-05

      iter #   2 total cpu time :  2652.7 secs   av.it.:  10.0
      thresh= 0.216E-03 alpha_mix =  0.700 |ddv_scf|^2 =  0.532E-05

      iter #   3 total cpu time :  2654.9 secs   av.it.:   9.5
      thresh= 0.231E-03 alpha_mix =  0.700 |ddv_scf|^2 =  0.100E-08

      iter #   4 total cpu time :  2656.6 secs   av.it.:   9.7
      thresh= 0.316E-05 alpha_mix =  0.700 |ddv_scf|^2 =  0.512E-11

      iter #   5 total cpu time :  2659.0 secs   av.it.:   9.6
      thresh= 0.226E-06 alpha_mix =  0.700 |ddv_scf|^2 =  0.348E-13

     End of self-consistent calculation

     Convergence has been achieved 


     Representation #  3 modes #   5  6

     Self-consistent Calculation

      iter #   1 total cpu time :  2660.4 secs   av.it.:   5.7
      thresh= 0.100E-01 alpha_mix =  0.700 |ddv_scf|^2 =  0.127E-05

      iter #   2 total cpu time :  2662.2 secs   av.it.:   9.9
      thresh= 0.113E-03 alpha_mix =  0.700 |ddv_scf|^2 =  0.573E-06

      iter #   3 total cpu time :  2664.6 secs   av.it.:   9.4
      thresh= 0.757E-04 alpha_mix =  0.700 |ddv_scf|^2 =  0.284E-10

      iter #   4 total cpu time :  2666.4 secs   av.it.:   9.5
      thresh= 0.533E-06 alpha_mix =  0.700 |ddv_scf|^2 =  0.349E-11

      iter #   5 total cpu time :  2668.1 secs   av.it.:   9.5
      thresh= 0.187E-06 alpha_mix =  0.700 |ddv_scf|^2 =  0.357E-14

     End of self-consistent calculation

     Convergence has been achieved 
 
     Number of q in the star =    6
     List of q in the star:
          1  -0.500000000  -1.000000000   0.000000000
          2   0.000000000   1.000000000   0.500000000
          3   0.500000000  -1.000000000   0.000000000
          4   0.000000000   1.000000000  -0.500000000
          5  -1.000000000  -0.500000000   0.000000000
          6   0.000000000  -0.500000000  -1.000000000

     Diagonalizing the dynamical matrix

     q = (   -0.500000000  -1.000000000   0.000000000 ) 

 **************************************************************************
     omega( 1) =       3.323988 [THz] =     110.876308 [cm-1]
     omega( 2) =       3.323988 [THz] =     110.876308 [cm-1]
     omega( 3) =       6.012137 [THz] =     200.543313 [cm-1]
     omega( 4) =       6.012137 [THz] =     200.543313 [cm-1]
     omega( 5) =       8.048985 [THz] =     268.485251 [cm-1]
     omega( 6) =       8.048985 [THz] =     268.485251 [cm-1]
 **************************************************************************
 
     init_run     :      0.37s CPU      0.43s WALL (      28 calls)
     electrons    :    150.53s CPU    166.77s WALL (      28 calls)

     Called by init_run:
     wfcinit      :      0.00s CPU      0.00s WALL (      28 calls)
     potinit      :      0.07s CPU      0.07s WALL (      28 calls)

     Called by electrons:
     c_bands      :    150.48s CPU    166.62s WALL (      28 calls)
     v_of_rho     :      0.02s CPU      0.01s WALL (      29 calls)

     Called by c_bands:
     init_us_2    :      6.62s CPU      6.69s WALL (  287669 calls)
     cegterg      :    124.79s CPU    127.50s WALL (   12542 calls)

     Called by *egterg:
     h_psi        :    123.73s CPU    126.85s WALL (  168330 calls)
     g_psi        :      1.66s CPU      1.57s WALL (  143246 calls)
     cdiaghg      :     12.59s CPU     12.69s WALL (  155788 calls)

     Called by h_psi:
     add_vuspsi   :     19.92s CPU     22.77s WALL ( 2631900 calls)

     General routines
     calbec       :     79.09s CPU     77.45s WALL ( 5309757 calls)
     fft          :      0.43s CPU      0.43s WALL (    3263 calls)
     ffts         :      4.67s CPU      4.80s WALL (   38856 calls)
     fftw         :   1894.61s CPU   1923.63s WALL (21997966 calls)
     davcio       :      4.56s CPU    237.57s WALL ( 1212586 calls)
 
     Parallel routines
     fft_scatter  :    479.34s CPU    474.60s WALL (22040085 calls)
     EXX routines
 
     PHONON       : 39m14.74s CPU    44m28.14s WALL

     INITIALIZATION: 
     phq_setup    :      0.17s CPU      0.18s WALL (      29 calls)
     phq_init     :      1.89s CPU      3.12s WALL (      29 calls)
 
     phq_init     :      1.89s CPU      3.12s WALL (      29 calls)
     init_vloc    :      0.01s CPU      0.01s WALL (      29 calls)
     init_us_1    :      0.06s CPU      0.06s WALL (      29 calls)
 
     DYNAMICAL MATRIX:
     dynmat0      :      1.05s CPU      1.71s WALL (      29 calls)
     phqscf       :   2179.47s CPU   2471.26s WALL (      29 calls)
     dynmatrix    :      0.13s CPU      0.16s WALL (      29 calls)
 
     phqscf       :   2179.47s CPU   2471.26s WALL (      29 calls)
     solve_linter :   2174.67s CPU   2460.12s WALL (     147 calls)
     drhodv       :      4.16s CPU      4.68s WALL (     147 calls)
 
     dynmat0      :      1.05s CPU      1.71s WALL (      29 calls)
     dynmat_us    :      1.02s CPU      1.12s WALL (      29 calls)
     d2ionq       :      0.00s CPU      0.01s WALL (      29 calls)
 
     dynmat_us    :      1.02s CPU      1.12s WALL (      29 calls)
 
     phqscf       :   2179.47s CPU   2471.26s WALL (      29 calls)
     solve_linter :   2174.67s CPU   2460.12s WALL (     147 calls)
 
     solve_linter :   2174.67s CPU   2460.12s WALL (     147 calls)
     dvqpsi_us    :     33.93s CPU     34.63s WALL (   37974 calls)
     ortho        :      9.84s CPU      9.76s WALL (  240021 calls)
     cgsolve      :   1741.32s CPU   1786.29s WALL (  240021 calls)
     incdrhoscf   :    226.36s CPU    232.08s WALL (  239934 calls)
     vpsifft      :    146.76s CPU    149.20s WALL (  201699 calls)
     dv_of_drho   :      0.44s CPU      0.44s WALL (    1049 calls)
     mix_pot      :      1.43s CPU     13.31s WALL (     910 calls)
     psymdvscf    :      2.25s CPU      2.28s WALL (     819 calls)
 
     dvqpsi_us    :     33.93s CPU     34.63s WALL (   37974 calls)
     dvqpsi_us_on :      1.22s CPU      1.27s WALL (   37974 calls)
 
     cgsolve      :   1741.32s CPU   1786.29s WALL (  240021 calls)
     ch_psi       :   1679.21s CPU   1722.97s WALL ( 2463570 calls)
 
     ch_psi       :   1679.21s CPU   1722.97s WALL ( 2463570 calls)
     h_psiq       :   1586.88s CPU   1626.01s WALL ( 2463570 calls)
     last         :     85.65s CPU     87.41s WALL ( 2463570 calls)
 
     h_psiq       :   1586.88s CPU   1626.01s WALL ( 2463570 calls)
     firstfft     :    726.01s CPU    745.68s WALL ( 8450387 calls)
     secondfft    :    735.08s CPU    745.26s WALL ( 8450387 calls)
     add_vuspsi   :     19.92s CPU     22.77s WALL ( 2631900 calls)
 
     incdrhoscf   :    226.36s CPU    232.08s WALL (  239934 calls)
 
 
      General routines
     calbec       :     79.09s CPU     77.45s WALL ( 5309757 calls)
     fft          :      0.43s CPU      0.43s WALL (    3263 calls)
     ffts         :      4.67s CPU      4.80s WALL (   38856 calls)
     fftw         :   1894.61s CPU   1923.63s WALL (21997966 calls)
     davcio       :      4.56s CPU    237.57s WALL ( 1212586 calls)
     write_rec    :      3.83s CPU     16.92s WALL (    1057 calls)
 
