
     Program PWSCF v.5.0        starts on 17Jul2012 at 17: 6:51 

     This program is part of the open-source Quantum ESPRESSO suite
     for quantum simulation of materials; please cite
         "P. Giannozzi et al., J. Phys.:Condens. Matter 21 395502 (2009);
          URL http://www.quantum-espresso.org", 
     in publications or presentations arising from this work. More details at
     http://www.quantum-espresso.org/quote.php

     Parallel version (MPI), running on     4 processors
     R & G space division:  proc/pool =    4

     Current dimensions of program PWSCF are:
     Max number of different atomic species (ntypx) = 10
     Max number of k-points (npk) =  40000
     Max angular momentum in pseudopotentials (lmaxx) =  3
     Waiting for input...
     Reading input from standard input

     Subspace diagonalization in iterative solution of the eigenvalue problem:
     a serial algorithm will be used

 
     Parallelization info
     --------------------
     sticks:   dense  smooth     PW     G-vecs:    dense   smooth      PW
     Min          70      70     22                  779      779     152
     Max          71      71     23                  780      780     153
     Sum         283     283     91                 3119     3119     609
 


     bravais-lattice index     =            2
     lattice parameter (alat)  =      10.6000  a.u.
     unit-cell volume          =     297.7540 (a.u.)^3
     number of atoms/cell      =            2
     number of atomic types    =            1
     number of electrons       =         8.00
     number of Kohn-Sham states=            4
     kinetic-energy cutoff     =      18.0000  Ry
     charge density cutoff     =      72.0000  Ry
     convergence threshold     =      1.0E-08
     mixing beta               =       0.7000
     number of iterations used =            8  plain     mixing
     Exchange-correlation      =  SLA  PZ   NOGX NOGC ( 1 1 0 0 0)
     EXX-fraction              =        0.00

     celldm(1)=  10.600000  celldm(2)=   0.000000  celldm(3)=   0.000000
     celldm(4)=   0.000000  celldm(5)=   0.000000  celldm(6)=   0.000000

     crystal axes: (cart. coord. in units of alat)
               a(1) = (  -0.500000   0.000000   0.500000 )  
               a(2) = (   0.000000   0.500000   0.500000 )  
               a(3) = (  -0.500000   0.500000   0.000000 )  

     reciprocal axes: (cart. coord. in units 2 pi/alat)
               b(1) = ( -1.000000 -1.000000  1.000000 )  
               b(2) = (  1.000000  1.000000  1.000000 )  
               b(3) = ( -1.000000  1.000000 -1.000000 )  


     PseudoPot. # 1 for Ge read from file:
     /home/ywg/QuantumEspresso/pseudo/Ge.pz-bhs.UPF
     MD5 check sum: bb78d5f8e158bcc491d4c705bdf69fa7
     Pseudo is Norm-conserving, Zval =  4.0
     Generated by new atomic code, or converted to UPF format
     Using radial grid of  291 points,  2 beta functions with: 
                l(1) =   0
                l(2) =   1

     atomic species   valence    mass     pseudopotential
        Ge             4.00    72.61000     Ge( 1.00)

     48 Sym. Ops., with inversion, found (24 have fractional translation)



   Cartesian axes

     site n.     atom                  positions (alat units)
         1           Ge  tau(   1) = (   0.0000000   0.0000000   0.0000000  )
         2           Ge  tau(   2) = (   0.2500000   0.2500000   0.2500000  )

     number of k points=    29
                       cart. coord. in units 2pi/alat
        k(    1) = (   0.0000000   0.0000000   0.0000000), wk =   0.0039062
        k(    2) = (  -0.1250000   0.1250000  -0.1250000), wk =   0.0312500
        k(    3) = (  -0.2500000   0.2500000  -0.2500000), wk =   0.0312500
        k(    4) = (  -0.3750000   0.3750000  -0.3750000), wk =   0.0312500
        k(    5) = (   0.5000000  -0.5000000   0.5000000), wk =   0.0156250
        k(    6) = (   0.0000000   0.2500000   0.0000000), wk =   0.0234375
        k(    7) = (  -0.1250000   0.3750000  -0.1250000), wk =   0.0937500
        k(    8) = (  -0.2500000   0.5000000  -0.2500000), wk =   0.0937500
        k(    9) = (   0.6250000  -0.3750000   0.6250000), wk =   0.0937500
        k(   10) = (   0.5000000  -0.2500000   0.5000000), wk =   0.0937500
        k(   11) = (   0.3750000  -0.1250000   0.3750000), wk =   0.0937500
        k(   12) = (   0.2500000   0.0000000   0.2500000), wk =   0.0468750
        k(   13) = (   0.0000000   0.5000000   0.0000000), wk =   0.0234375
        k(   14) = (  -0.1250000   0.6250000  -0.1250000), wk =   0.0937500
        k(   15) = (   0.7500000  -0.2500000   0.7500000), wk =   0.0937500
        k(   16) = (   0.6250000  -0.1250000   0.6250000), wk =   0.0937500
        k(   17) = (   0.5000000   0.0000000   0.5000000), wk =   0.0468750
        k(   18) = (   0.0000000   0.7500000   0.0000000), wk =   0.0234375
        k(   19) = (   0.8750000  -0.1250000   0.8750000), wk =   0.0937500
        k(   20) = (   0.7500000   0.0000000   0.7500000), wk =   0.0468750
        k(   21) = (   0.0000000  -1.0000000   0.0000000), wk =   0.0117188
        k(   22) = (  -0.2500000   0.5000000   0.0000000), wk =   0.0937500
        k(   23) = (   0.6250000  -0.3750000   0.8750000), wk =   0.1875000
        k(   24) = (   0.5000000  -0.2500000   0.7500000), wk =   0.0937500
        k(   25) = (   0.7500000  -0.2500000   1.0000000), wk =   0.0937500
        k(   26) = (   0.6250000  -0.1250000   0.8750000), wk =   0.1875000
        k(   27) = (   0.5000000   0.0000000   0.7500000), wk =   0.0937500
        k(   28) = (  -0.2500000  -1.0000000   0.0000000), wk =   0.0468750
        k(   29) = (  -0.5000000  -1.0000000   0.0000000), wk =   0.0234375

     Dense  grid:     3119 G-vectors     FFT dimensions: (  24,  24,  24)

     Largest allocated arrays     est. size (Mb)     dimensions
        Kohn-Sham Wavefunctions         0.01 Mb     (    102,    4)
        NL pseudopotentials             0.01 Mb     (    102,    8)
        Each V/rho on FFT grid          0.05 Mb     (   3456)
        Each G-vector array             0.01 Mb     (    779)
        G-vector shells                 0.00 Mb     (     70)
     Largest temporary arrays     est. size (Mb)     dimensions
        Auxiliary wavefunctions         0.02 Mb     (    102,   16)
        Each subspace H/S matrix        0.00 Mb     (  16,  16)
        Each <psi_i|beta_j> matrix      0.00 Mb     (      8,    4)
        Arrays for rho mixing           0.42 Mb     (   3456,   8)

     Initial potential from superposition of free atoms

     starting charge    6.99990, renormalised to    8.00000
     Starting wfc are    8 randomized atomic wfcs

     total cpu time spent up to now is        0.4 secs

     per-process dynamical memory:     1.0 Mb

     Self-consistent Calculation

     iteration #  1     ecut=    18.00 Ry     beta=0.70
     Davidson diagonalization with overlap
     ethr =  1.00E-02,  avg # of iterations =  1.2

     Threshold (ethr) on eigenvalues was too large:
     Diagonalizing with lowered threshold

     Davidson diagonalization with overlap
     ethr =  2.95E-04,  avg # of iterations =  2.8

     total cpu time spent up to now is        0.6 secs

     total energy              =     -16.01052772 Ry
     Harris-Foulkes estimate   =     -16.01494821 Ry
     estimated scf accuracy    <       0.02493814 Ry

     iteration #  2     ecut=    18.00 Ry     beta=0.70
     Davidson diagonalization with overlap
     ethr =  3.12E-04,  avg # of iterations =  1.0

     total cpu time spent up to now is        0.7 secs

     total energy              =     -16.01034383 Ry
     Harris-Foulkes estimate   =     -16.01070205 Ry
     estimated scf accuracy    <       0.00198751 Ry

     iteration #  3     ecut=    18.00 Ry     beta=0.70
     Davidson diagonalization with overlap
     ethr =  2.48E-05,  avg # of iterations =  1.3

     total cpu time spent up to now is        0.7 secs

     total energy              =     -16.01041473 Ry
     Harris-Foulkes estimate   =     -16.01041698 Ry
     estimated scf accuracy    <       0.00000496 Ry

     iteration #  4     ecut=    18.00 Ry     beta=0.70
     Davidson diagonalization with overlap
     ethr =  6.20E-08,  avg # of iterations =  4.2

     total cpu time spent up to now is        0.9 secs

     total energy              =     -16.01043372 Ry
     Harris-Foulkes estimate   =     -16.01043372 Ry
     estimated scf accuracy    <       0.00000006 Ry

     iteration #  5     ecut=    18.00 Ry     beta=0.70
     Davidson diagonalization with overlap
     ethr =  6.91E-10,  avg # of iterations =  2.4

     total cpu time spent up to now is        1.0 secs

     End of self-consistent calculation

          k = 0.0000 0.0000 0.0000 (   387 PWs)   bands (ev):

    -7.0800   5.6536   5.6536   5.6536

          k =-0.1250 0.1250-0.1250 (   369 PWs)   bands (ev):

    -6.8990   3.4161   5.3239   5.3239

          k =-0.2500 0.2500-0.2500 (   380 PWs)   bands (ev):

    -6.3714   0.9330   4.7846   4.7846

          k =-0.3750 0.3750-0.3750 (   386 PWs)   bands (ev):

    -5.5900  -1.0808   4.4060   4.4060

          k = 0.5000-0.5000 0.5000 (   392 PWs)   bands (ev):

    -5.0631  -2.0266   4.2744   4.2744

          k = 0.0000 0.2500 0.0000 (   371 PWs)   bands (ev):

    -6.8377   3.4276   4.7783   4.7783

          k =-0.1250 0.3750-0.1250 (   378 PWs)   bands (ev):

    -6.4210   1.5148   4.1559   4.2184

          k =-0.2500 0.5000-0.2500 (   380 PWs)   bands (ev):

    -5.7002  -0.5198   3.4737   3.9103

          k = 0.6250-0.3750 0.6250 (   385 PWs)   bands (ev):

    -4.9694  -1.8887   3.0062   3.9142

          k = 0.5000-0.2500 0.5000 (   385 PWs)   bands (ev):

    -5.1713  -1.5527   2.8544   4.2181

          k = 0.3750-0.1250 0.3750 (   382 PWs)   bands (ev):

    -5.9709   0.1215   3.0875   4.7471

          k = 0.2500 0.0000 0.2500 (   381 PWs)   bands (ev):

    -6.6006   2.0881   3.8962   5.2857

          k = 0.0000 0.5000 0.0000 (   375 PWs)   bands (ev):

    -6.1141   0.9703   3.6158   3.6158

          k =-0.1250 0.6250-0.1250 (   386 PWs)   bands (ev):

    -5.4769  -0.4425   2.7764   3.2683

          k = 0.7500-0.2500 0.7500 (   390 PWs)   bands (ev):

    -4.6639  -1.7870   1.8792   3.2584

          k = 0.6250-0.1250 0.6250 (   389 PWs)   bands (ev):

    -4.5026  -2.0038   1.4413   3.5831

          k = 0.5000 0.0000 0.5000 (   379 PWs)   bands (ev):

    -5.2654  -0.9120   1.7274   4.1646

          k = 0.0000 0.7500 0.0000 (   387 PWs)   bands (ev):

    -4.9220  -1.2994   2.8473   2.8473

          k = 0.8750-0.1250 0.8750 (   385 PWs)   bands (ev):

    -4.1054  -2.3619   2.0535   2.7618

          k = 0.7500 0.0000 0.7500 (   391 PWs)   bands (ev):

    -3.7583  -2.7042   1.2441   3.0259

          k = 0.0000-1.0000 0.0000 (   388 PWs)   bands (ev):

    -3.2950  -3.2950   2.5839   2.5839

          k =-0.2500 0.5000 0.0000 (   378 PWs)   bands (ev):

    -5.8961   0.2841   2.7661   4.0479

          k = 0.6250-0.3750 0.8750 (   386 PWs)   bands (ev):

    -5.1106  -1.2163   2.0692   3.5553

          k = 0.5000-0.2500 0.7500 (   384 PWs)   bands (ev):

    -4.5609  -2.0599   1.8876   3.3352

          k = 0.7500-0.2500 1.0000 (   391 PWs)   bands (ev):

    -4.7536  -1.5130   2.1103   2.7390

          k = 0.6250-0.1250 0.8750 (   388 PWs)   bands (ev):

    -3.9859  -2.4352   1.4483   2.5395

          k = 0.5000 0.0000 0.7500 (   385 PWs)   bands (ev):

    -4.3081  -2.0710   1.2912   2.9084

          k =-0.2500-1.0000 0.0000 (   384 PWs)   bands (ev):

    -3.2454  -3.2454   2.0760   2.0760

          k =-0.5000-1.0000 0.0000 (   380 PWs)   bands (ev):

    -3.1932  -3.1932   1.6867   1.6867

!    total energy              =     -16.01043373 Ry
     Harris-Foulkes estimate   =     -16.01043373 Ry
     estimated scf accuracy    <          2.0E-09 Ry

     The total energy is the sum of the following terms:

     one-electron contribution =       3.76715332 Ry
     hartree contribution      =       1.15935794 Ry
     xc contribution           =      -4.67491313 Ry
     ewald contribution        =     -16.26203186 Ry

     convergence has been achieved in   5 iterations

     Forces acting on atoms (Ry/au):

     atom    1 type  1   force =     0.00000000    0.00000000    0.00000000
     atom    2 type  1   force =     0.00000000    0.00000000    0.00000000

     Total force =     0.000000     Total SCF correction =     0.000000


     entering subroutine stress ...

          total   stress  (Ry/bohr**3)                   (kbar)     P=   -1.81
  -0.00001234   0.00000000   0.00000000         -1.81      0.00      0.00
   0.00000000  -0.00001234   0.00000000          0.00     -1.81      0.00
   0.00000000   0.00000000  -0.00001234          0.00      0.00     -1.81


     Writing output data file ge.save
 
     init_run     :      0.17s CPU      0.31s WALL (       1 calls)
     electrons    :      0.52s CPU      0.56s WALL (       1 calls)
     forces       :      0.00s CPU      0.00s WALL (       1 calls)
     stress       :      0.01s CPU      0.01s WALL (       1 calls)

     Called by init_run:
     wfcinit      :      0.15s CPU      0.28s WALL (       1 calls)
     potinit      :      0.00s CPU      0.00s WALL (       1 calls)

     Called by electrons:
     c_bands      :      0.43s CPU      0.46s WALL (       6 calls)
     sum_band     :      0.07s CPU      0.07s WALL (       6 calls)
     v_of_rho     :      0.00s CPU      0.00s WALL (       6 calls)
     mix_rho      :      0.00s CPU      0.00s WALL (       6 calls)

     Called by c_bands:
     init_us_2    :      0.01s CPU      0.01s WALL (     435 calls)
     cegterg      :      0.43s CPU      0.45s WALL (     174 calls)

     Called by *egterg:
     h_psi        :      0.48s CPU      0.56s WALL (     576 calls)
     g_psi        :      0.00s CPU      0.00s WALL (     373 calls)
     cdiaghg      :      0.04s CPU      0.04s WALL (     518 calls)

     Called by h_psi:
     add_vuspsi   :      0.00s CPU      0.00s WALL (     576 calls)

     General routines
     calbec       :      0.02s CPU      0.02s WALL (     634 calls)
     fft          :      0.01s CPU      0.00s WALL (      30 calls)
     fftw         :      0.50s CPU      0.57s WALL (    4934 calls)
     davcio       :      0.00s CPU      0.09s WALL (     609 calls)
 
     Parallel routines
     fft_scatter  :      0.20s CPU      0.25s WALL (    4964 calls)
     EXX routines
 
     PWSCF        :     0.85s CPU         1.08s WALL

 
   This run was terminated on:  17: 6:53  17Jul2012            

=------------------------------------------------------------------------------=
   JOB DONE.
=------------------------------------------------------------------------------=
