
     Program PWSCF v.5.0        starts on 14Aug2012 at 23:56: 6 

     This program is part of the open-source Quantum ESPRESSO suite
     for quantum simulation of materials; please cite
         "P. Giannozzi et al., J. Phys.:Condens. Matter 21 395502 (2009);
          URL http://www.quantum-espresso.org", 
     in publications or presentations arising from this work. More details at
     http://www.quantum-espresso.org/quote.php

     Parallel version (MPI), running on     1 processors

     Current dimensions of program PWSCF are:
     Max number of different atomic species (ntypx) = 10
     Max number of k-points (npk) =  40000
     Max angular momentum in pseudopotentials (lmaxx) =  3
     Reading input from si-001.scf.david.in

     Subspace diagonalization in iterative solution of the eigenvalue problem:
     a serial algorithm will be used

 
     G-vector sticks info
     --------------------
     sticks:   dense  smooth     PW     G-vecs:    dense   smooth      PW
     Sum        2335    2335    649                74129    74129   11017
 


     bravais-lattice index     =            2
     lattice parameter (alat)  =      30.6000  a.u.
     unit-cell volume          =    7163.1540 (a.u.)^3
     number of atoms/cell      =           54
     number of atomic types    =            1
     number of electrons       =       216.00
     number of Kohn-Sham states=          108
     kinetic-energy cutoff     =      18.0000  Ry
     charge density cutoff     =      72.0000  Ry
     convergence threshold     =      1.0E-08
     mixing beta               =       0.7000
     number of iterations used =            8  plain     mixing
     Exchange-correlation      =  SLA  PZ   NOGX NOGC ( 1 1 0 0 0)
     EXX-fraction              =        0.00

     celldm(1)=  30.600000  celldm(2)=   0.000000  celldm(3)=   0.000000
     celldm(4)=   0.000000  celldm(5)=   0.000000  celldm(6)=   0.000000

     crystal axes: (cart. coord. in units of alat)
               a(1) = (  -0.500000   0.000000   0.500000 )  
               a(2) = (   0.000000   0.500000   0.500000 )  
               a(3) = (  -0.500000   0.500000   0.000000 )  

     reciprocal axes: (cart. coord. in units 2 pi/alat)
               b(1) = ( -1.000000 -1.000000  1.000000 )  
               b(2) = (  1.000000  1.000000  1.000000 )  
               b(3) = ( -1.000000  1.000000 -1.000000 )  


     PseudoPot. # 1 for Si read from file:
     /home/ywg/QuantumEspresso/pseudo/Si.pz-vbc.UPF
     MD5 check sum: 6dfa03ddd5817404712e03e4d12deb78
     Pseudo is Norm-conserving, Zval =  4.0
     Generated by new atomic code, or converted to UPF format
     Using radial grid of  431 points,  2 beta functions with: 
                l(1) =   0
                l(2) =   1

     atomic species   valence    mass     pseudopotential
        Si             4.00    28.08600     Si( 1.00)

      4 Sym. Ops. (no inversion) found



   Cartesian axes

     site n.     atom                  positions (alat units)
         1           Si  tau(   1) = (   0.0004622   0.0000000   0.0000000  )
         2           Si  tau(   2) = (   0.3333333   0.0000000   0.0000000  )
         3           Si  tau(   3) = (   0.6666667   0.0000000   0.0000000  )
         4           Si  tau(   4) = (   0.0000000   0.3333333   0.0000000  )
         5           Si  tau(   5) = (   0.3333333   0.3333333   0.0000000  )
         6           Si  tau(   6) = (   0.6666667   0.3333333   0.0000000  )
         7           Si  tau(   7) = (   0.0000000   0.6666667   0.0000000  )
         8           Si  tau(   8) = (   0.3333333   0.6666667   1.0000000  )
         9           Si  tau(   9) = (   0.6666667   0.6666667   0.0000000  )
        10           Si  tau(  10) = (   0.0000000   0.0000000   0.3333333  )
        11           Si  tau(  11) = (   0.3333333   0.0000000   0.3333333  )
        12           Si  tau(  12) = (   0.6666667   0.0000000   0.3333333  )
        13           Si  tau(  13) = (   0.0000000   0.3333333   0.3333333  )
        14           Si  tau(  14) = (   0.3333333   0.3333333   0.3333333  )
        15           Si  tau(  15) = (   0.6666667   0.3333333   0.3333333  )
        16           Si  tau(  16) = (   0.0000000   0.6666667   0.3333333  )
        17           Si  tau(  17) = (   0.3333333   0.6666667   0.3333333  )
        18           Si  tau(  18) = (   0.6666667   0.6666667   0.3333333  )
        19           Si  tau(  19) = (   0.0000000   0.0000000   0.6666667  )
        20           Si  tau(  20) = (   0.3333333   1.0000000   0.6666667  )
        21           Si  tau(  21) = (   0.6666667   0.0000000   0.6666667  )
        22           Si  tau(  22) = (   0.0000000   0.3333333   0.6666667  )
        23           Si  tau(  23) = (   0.3333333   0.3333333   0.6666667  )
        24           Si  tau(  24) = (   0.6666667   0.3333333   0.6666667  )
        25           Si  tau(  25) = (   0.0000000   0.6666667   0.6666667  )
        26           Si  tau(  26) = (   0.3333333   0.6666667   0.6666667  )
        27           Si  tau(  27) = (   0.6666667   0.6666667   0.6666667  )
        28           Si  tau(  28) = (   0.0833333   0.0833333   0.0833333  )
        29           Si  tau(  29) = (   0.4166667   0.0833333   0.0833333  )
        30           Si  tau(  30) = (   0.7500000   0.0833333   0.0833333  )
        31           Si  tau(  31) = (   0.0833333   0.4166667   0.0833333  )
        32           Si  tau(  32) = (   0.4166667   0.4166667   0.0833333  )
        33           Si  tau(  33) = (   0.7500000   0.4166667   0.0833333  )
        34           Si  tau(  34) = (   0.0833333   0.7500000   0.0833333  )
        35           Si  tau(  35) = (   0.4166667   0.7500000   0.0833333  )
        36           Si  tau(  36) = (   0.7500000   0.7500000   0.0833333  )
        37           Si  tau(  37) = (   0.0833333   0.0833333   0.4166667  )
        38           Si  tau(  38) = (   0.4166667   0.0833333   0.4166667  )
        39           Si  tau(  39) = (   0.7500000   0.0833333   0.4166667  )
        40           Si  tau(  40) = (   0.0833333   0.4166667   0.4166667  )
        41           Si  tau(  41) = (   0.4166667   0.4166667   0.4166667  )
        42           Si  tau(  42) = (   0.7500000   0.4166667   0.4166667  )
        43           Si  tau(  43) = (   0.0833333   0.7500000   0.4166667  )
        44           Si  tau(  44) = (   0.4166667   0.7500000   0.4166667  )
        45           Si  tau(  45) = (   0.7500000   0.7500000   0.4166667  )
        46           Si  tau(  46) = (   0.0833333   0.0833333   0.7500000  )
        47           Si  tau(  47) = (   0.4166667   0.0833333   0.7500000  )
        48           Si  tau(  48) = (   0.7500000   0.0833333   0.7500000  )
        49           Si  tau(  49) = (   0.0833333   0.4166667   0.7500000  )
        50           Si  tau(  50) = (   0.4166667   0.4166667   0.7500000  )
        51           Si  tau(  51) = (   0.7500000   0.4166667   0.7500000  )
        52           Si  tau(  52) = (   0.0833333   0.7500000   0.7500000  )
        53           Si  tau(  53) = (   0.4166667   0.7500000   0.7500000  )
        54           Si  tau(  54) = (   0.7500000   0.7500000   0.7500000  )

     number of k points=    95
                       cart. coord. in units 2pi/alat
        k(    1) = (   0.0000000   0.0000000   0.0000000), wk =   0.0039062
        k(    2) = (  -0.1250000   0.1250000  -0.1250000), wk =   0.0156250
        k(    3) = (  -0.2500000   0.2500000  -0.2500000), wk =   0.0156250
        k(    4) = (  -0.3750000   0.3750000  -0.3750000), wk =   0.0156250
        k(    5) = (   0.5000000  -0.5000000   0.5000000), wk =   0.0078125
        k(    6) = (   0.0000000   0.2500000   0.0000000), wk =   0.0156250
        k(    7) = (  -0.1250000   0.3750000  -0.1250000), wk =   0.0312500
        k(    8) = (  -0.2500000   0.5000000  -0.2500000), wk =   0.0312500
        k(    9) = (   0.6250000  -0.3750000   0.6250000), wk =   0.0312500
        k(   10) = (   0.5000000  -0.2500000   0.5000000), wk =   0.0312500
        k(   11) = (   0.3750000  -0.1250000   0.3750000), wk =   0.0312500
        k(   12) = (   0.2500000   0.0000000   0.2500000), wk =   0.0312500
        k(   13) = (   0.0000000   0.5000000   0.0000000), wk =   0.0156250
        k(   14) = (  -0.1250000   0.6250000  -0.1250000), wk =   0.0312500
        k(   15) = (   0.7500000  -0.2500000   0.7500000), wk =   0.0312500
        k(   16) = (   0.6250000  -0.1250000   0.6250000), wk =   0.0312500
        k(   17) = (   0.5000000   0.0000000   0.5000000), wk =   0.0312500
        k(   18) = (   0.0000000   0.7500000   0.0000000), wk =   0.0156250
        k(   19) = (   0.8750000  -0.1250000   0.8750000), wk =   0.0312500
        k(   20) = (   0.7500000   0.0000000   0.7500000), wk =   0.0312500
        k(   21) = (   0.0000000  -1.0000000   0.0000000), wk =   0.0078125
        k(   22) = (  -0.2500000   0.5000000   0.0000000), wk =   0.0312500
        k(   23) = (   0.6250000  -0.3750000   0.8750000), wk =   0.0312500
        k(   24) = (   0.5000000  -0.2500000   0.7500000), wk =   0.0156250
        k(   25) = (   0.7500000  -0.2500000   1.0000000), wk =   0.0312500
        k(   26) = (   0.6250000  -0.1250000   0.8750000), wk =   0.0312500
        k(   27) = (   0.5000000   0.0000000   0.7500000), wk =   0.0312500
        k(   28) = (  -0.2500000  -1.0000000   0.0000000), wk =   0.0156250
        k(   29) = (  -0.5000000  -1.0000000   0.0000000), wk =   0.0078125
        k(   30) = (  -0.1250000   0.1250000   0.1250000), wk =   0.0156250
        k(   31) = (  -0.2500000   0.2500000   0.2500000), wk =   0.0156250
        k(   32) = (  -0.3750000   0.3750000   0.3750000), wk =   0.0156250
        k(   33) = (   0.5000000  -0.5000000  -0.5000000), wk =   0.0078125
        k(   34) = (   0.2500000   0.0000000   0.0000000), wk =   0.0078125
        k(   35) = (   0.3750000  -0.1250000   0.1250000), wk =   0.0156250
        k(   36) = (  -0.3750000   0.1250000   0.1250000), wk =   0.0156250
        k(   37) = (  -0.1250000  -0.3750000  -0.1250000), wk =   0.0312500
        k(   38) = (   0.5000000  -0.2500000   0.2500000), wk =   0.0156250
        k(   39) = (  -0.5000000   0.2500000   0.2500000), wk =   0.0156250
        k(   40) = (  -0.2500000  -0.5000000  -0.2500000), wk =   0.0312500
        k(   41) = (  -0.3750000   0.6250000  -0.6250000), wk =   0.0156250
        k(   42) = (   0.3750000  -0.6250000  -0.6250000), wk =   0.0156250
        k(   43) = (   0.6250000   0.3750000   0.6250000), wk =   0.0312500
        k(   44) = (  -0.2500000   0.5000000  -0.5000000), wk =   0.0156250
        k(   45) = (   0.2500000  -0.5000000  -0.5000000), wk =   0.0156250
        k(   46) = (   0.5000000   0.2500000   0.5000000), wk =   0.0312500
        k(   47) = (  -0.1250000   0.3750000  -0.3750000), wk =   0.0156250
        k(   48) = (   0.1250000  -0.3750000  -0.3750000), wk =   0.0156250
        k(   49) = (   0.3750000   0.1250000   0.3750000), wk =   0.0312500
        k(   50) = (   0.0000000   0.2500000  -0.2500000), wk =   0.0078125
        k(   51) = (   0.0000000  -0.2500000  -0.2500000), wk =   0.0078125
        k(   52) = (   0.5000000   0.0000000   0.0000000), wk =   0.0078125
        k(   53) = (   0.6250000  -0.1250000   0.1250000), wk =   0.0156250
        k(   54) = (  -0.6250000   0.1250000   0.1250000), wk =   0.0156250
        k(   55) = (  -0.1250000  -0.6250000  -0.1250000), wk =   0.0312500
        k(   56) = (  -0.2500000   0.7500000  -0.7500000), wk =   0.0156250
        k(   57) = (   0.2500000  -0.7500000  -0.7500000), wk =   0.0156250
        k(   58) = (   0.7500000   0.2500000   0.7500000), wk =   0.0312500
        k(   59) = (  -0.1250000   0.6250000  -0.6250000), wk =   0.0156250
        k(   60) = (   0.1250000  -0.6250000  -0.6250000), wk =   0.0156250
        k(   61) = (   0.6250000   0.1250000   0.6250000), wk =   0.0312500
        k(   62) = (   0.0000000   0.5000000  -0.5000000), wk =   0.0078125
        k(   63) = (   0.0000000  -0.5000000  -0.5000000), wk =   0.0078125
        k(   64) = (   0.7500000   0.0000000   0.0000000), wk =   0.0078125
        k(   65) = (  -0.1250000   0.8750000  -0.8750000), wk =   0.0156250
        k(   66) = (   0.1250000  -0.8750000  -0.8750000), wk =   0.0156250
        k(   67) = (   0.8750000   0.1250000   0.8750000), wk =   0.0312500
        k(   68) = (   0.0000000   0.7500000  -0.7500000), wk =   0.0078125
        k(   69) = (   0.0000000  -0.7500000  -0.7500000), wk =   0.0078125
        k(   70) = (  -1.0000000   0.0000000   0.0000000), wk =   0.0039062
        k(   71) = (   0.5000000  -0.2500000   0.0000000), wk =   0.0312500
        k(   72) = (   0.0000000  -0.5000000  -0.2500000), wk =   0.0156250
        k(   73) = (   0.0000000  -0.5000000   0.2500000), wk =   0.0156250
        k(   74) = (  -0.3750000   0.6250000  -0.8750000), wk =   0.0312500
        k(   75) = (   0.3750000  -0.6250000  -0.8750000), wk =   0.0312500
        k(   76) = (   0.8750000   0.3750000   0.6250000), wk =   0.0312500
        k(   77) = (  -0.8750000   0.3750000  -0.6250000), wk =   0.0312500
        k(   78) = (   0.6250000   0.8750000   0.3750000), wk =   0.0312500
        k(   79) = (  -0.2500000   0.5000000  -0.7500000), wk =   0.0312500
        k(   80) = (   0.2500000  -0.5000000  -0.7500000), wk =   0.0312500
        k(   81) = (   0.5000000   0.7500000   0.2500000), wk =   0.0156250
        k(   82) = (  -0.2500000   0.7500000  -1.0000000), wk =   0.0312500
        k(   83) = (   1.0000000   0.2500000   0.7500000), wk =   0.0156250
        k(   84) = (  -1.0000000   0.2500000  -0.7500000), wk =   0.0156250
        k(   85) = (  -0.1250000   0.6250000  -0.8750000), wk =   0.0312500
        k(   86) = (   0.1250000  -0.6250000  -0.8750000), wk =   0.0312500
        k(   87) = (   0.8750000   0.1250000   0.6250000), wk =   0.0312500
        k(   88) = (  -0.8750000   0.1250000  -0.6250000), wk =   0.0312500
        k(   89) = (   0.6250000   0.8750000   0.1250000), wk =   0.0312500
        k(   90) = (   0.0000000   0.5000000  -0.7500000), wk =   0.0156250
        k(   91) = (   0.0000000  -0.5000000  -0.7500000), wk =   0.0156250
        k(   92) = (   0.7500000   0.0000000   0.5000000), wk =   0.0312500
        k(   93) = (  -1.0000000  -0.2500000   0.0000000), wk =   0.0156250
        k(   94) = (   0.0000000   1.0000000  -0.2500000), wk =   0.0156250
        k(   95) = (  -1.0000000  -0.5000000   0.0000000), wk =   0.0156250

     Dense  grid:    74129 G-vectors     FFT dimensions: (  60,  60,  60)

     Largest allocated arrays     est. size (Mb)     dimensions
        Kohn-Sham Wavefunctions        15.30 Mb     (   9282,  108)
        NL pseudopotentials            30.59 Mb     (   9282,  216)
        Each V/rho on FFT grid          3.30 Mb     ( 216000)
        Each G-vector array             0.57 Mb     (  74129)
        G-vector shells                 0.00 Mb     (    572)
     Largest temporary arrays     est. size (Mb)     dimensions
        Auxiliary wavefunctions        61.19 Mb     (   9282,  432)
        Each subspace H/S matrix        2.85 Mb     ( 432, 432)
        Each <psi_i|beta_j> matrix      0.36 Mb     (    216,  108)
        Arrays for rho mixing          26.37 Mb     ( 216000,   8)

     Initial potential from superposition of free atoms

     starting charge  215.97322, renormalised to  216.00000
     Starting wfc are  216 randomized atomic wfcs

     total cpu time spent up to now is      428.1 secs

     per-process dynamical memory:   150.9 Mb

     Self-consistent Calculation

     iteration #  1     ecut=    18.00 Ry     beta=0.70
     Davidson diagonalization with overlap
     ethr =  1.00E-02,  avg # of iterations =  2.0

     Threshold (ethr) on eigenvalues was too large:
     Diagonalizing with lowered threshold

     Davidson diagonalization with overlap
     ethr =  7.75E-04,  avg # of iterations =  1.0

     total cpu time spent up to now is     1678.0 secs

     total energy              =    -427.71184771 Ry
     Harris-Foulkes estimate   =    -428.27744882 Ry
     estimated scf accuracy    <       1.65461033 Ry

     iteration #  2     ecut=    18.00 Ry     beta=0.70
     Davidson diagonalization with overlap
     ethr =  7.66E-04,  avg # of iterations =  1.0

     total cpu time spent up to now is     2171.5 secs

     total energy              =    -427.79528507 Ry
     Harris-Foulkes estimate   =    -427.80347786 Ry
     estimated scf accuracy    <       0.05773700 Ry

     iteration #  3     ecut=    18.00 Ry     beta=0.70
     Davidson diagonalization with overlap
     ethr =  2.67E-05,  avg # of iterations =  3.0

     total cpu time spent up to now is     2882.9 secs

     total energy              =    -427.80765100 Ry
     Harris-Foulkes estimate   =    -427.80856003 Ry
     estimated scf accuracy    <       0.00196004 Ry

     iteration #  4     ecut=    18.00 Ry     beta=0.70
     Davidson diagonalization with overlap
     ethr =  9.07E-07,  avg # of iterations =  2.8

     total cpu time spent up to now is     3655.4 secs

     total energy              =    -427.80806682 Ry
     Harris-Foulkes estimate   =    -427.80818611 Ry
     estimated scf accuracy    <       0.00026820 Ry

     iteration #  5     ecut=    18.00 Ry     beta=0.70
     Davidson diagonalization with overlap
     ethr =  1.24E-07,  avg # of iterations =  3.0

     total cpu time spent up to now is     4354.0 secs

     total energy              =    -427.80809064 Ry
     Harris-Foulkes estimate   =    -427.80813260 Ry
     estimated scf accuracy    <       0.00011466 Ry

     iteration #  6     ecut=    18.00 Ry     beta=0.70
     Davidson diagonalization with overlap
     ethr =  5.31E-08,  avg # of iterations =  2.0

     total cpu time spent up to now is     5001.9 secs

     total energy              =    -427.80810879 Ry
     Harris-Foulkes estimate   =    -427.80810907 Ry
     estimated scf accuracy    <       0.00000112 Ry

     iteration #  7     ecut=    18.00 Ry     beta=0.70
     Davidson diagonalization with overlap
     ethr =  5.17E-10,  avg # of iterations =  3.7

     total cpu time spent up to now is     5818.5 secs

     total energy              =    -427.80810921 Ry
     Harris-Foulkes estimate   =    -427.80810935 Ry
     estimated scf accuracy    <       0.00000053 Ry

     iteration #  8     ecut=    18.00 Ry     beta=0.70
     Davidson diagonalization with overlap
     ethr =  2.46E-10,  avg # of iterations =  1.2

     total cpu time spent up to now is     6312.1 secs

     total energy              =    -427.80810918 Ry
     Harris-Foulkes estimate   =    -427.80810923 Ry
     estimated scf accuracy    <       0.00000014 Ry

     iteration #  9     ecut=    18.00 Ry     beta=0.70
     Davidson diagonalization with overlap
     ethr =  6.62E-11,  avg # of iterations =  2.1

     total cpu time spent up to now is     6944.7 secs

     End of self-consistent calculation

          k = 0.0000 0.0000 0.0000 (  9257 PWs)   bands (ev):

    -5.8107  -4.4129  -4.4111  -4.4107  -4.4106  -4.4104  -4.4103  -4.4099
    -4.4082  -3.8758  -3.8745  -3.8740  -3.8740  -3.8735  -3.8721  -2.4802
    -2.4785  -2.4772  -2.4771  -2.4769  -2.4769  -2.4766  -2.4766  -2.4764
    -2.4764  -2.4751  -2.4733  -0.5501  -0.5488  -0.5471  -0.5470  -0.5470
    -0.5470  -0.5465  -0.5465  -0.5464  -0.5463  -0.5446  -0.5433   0.8533
     0.8536   0.8545   0.8549   0.8550   0.8555   0.8563   0.8566   1.2465
     1.2467   1.2479   1.2479   1.2492   1.2494   1.7092   1.7111   1.7111
     1.7113   1.7114   1.7114   1.7118   1.7118   1.7119   1.7121   1.7121
     1.7140   3.7739   3.7758   3.7762   3.7763   3.7764   3.7764   3.7764
     3.7764   3.7765   3.7766   3.7769   3.7787   4.0890   4.0899   4.0907
     4.0910   4.0910   4.0911   4.0913   4.0914   4.0914   4.0917   4.0925
     4.0934   5.2249   5.2292   5.2298   5.2298   5.2299   5.2301   5.2301
     5.2302   5.2302   5.2303   5.2304   5.2305   5.2306   5.2306   5.2312
     5.2355   6.2524   6.2538   6.2552

          k =-0.1250 0.1250-0.1250 (  9282 PWs)   bands (ev):

    -5.7879  -4.7200  -4.4967  -4.4964  -4.4953  -4.2829  -4.2826  -4.2814
    -4.0925  -4.0921  -4.0909  -4.0858  -3.6204  -3.6200  -3.6188  -2.7781
    -2.7777  -2.7766  -2.4758  -2.4753  -2.4749  -2.4746  -2.4744  -2.4723
    -2.2465  -2.2457  -2.2447  -0.7779  -0.7775  -0.7757  -0.5629  -0.5619
    -0.5607  -0.5603  -0.5602  -0.5589  -0.2941  -0.2939  -0.2925   0.2301
     0.6475   0.6477   0.6488   0.8570   0.8575   0.8589   1.0866   1.0868
     1.0879   1.5464   1.5917   1.5921   1.5934   1.7516   1.7520   1.7525
     1.7611   1.7623   1.7628   1.7628   1.7631   1.7635   1.8324   1.8326
     1.8333   3.5896   3.5897   3.5905   3.6844   3.6851   3.6854   3.8255
     3.8257   3.8266   3.9028   3.9036   3.9039   3.9265   3.9272   3.9275
     3.9958   3.9959   3.9963   3.9964   3.9970   3.9983   4.2809   4.2817
     4.2821   4.9053   4.9057   4.9070   5.0937   5.0949   5.0951   5.1413
     5.1427   5.2198   5.2204   5.2218   5.2808   5.2820   5.2823   5.3411
     5.3425   5.9973   6.2124   6.2142

          k =-0.2500 0.2500-0.2500 (  9258 PWs)   bands (ev):

    -5.7196  -4.9990  -4.5375  -4.5372  -4.5360  -4.2686  -4.2682  -4.2671
    -4.1146  -4.1143  -4.1131  -3.7708  -3.3316  -3.3311  -3.3300  -3.0898
    -3.0896  -3.0884  -2.4714  -2.4709  -2.4705  -2.4702  -2.4700  -2.4679
    -2.2013  -2.2004  -2.1994  -0.8356  -0.8351  -0.8333  -0.5933  -0.5923
    -0.5911  -0.5907  -0.5907  -0.5892  -0.2999  -0.0893  -0.0892  -0.0878
     0.4533   0.4537   0.4551   0.4697   0.4699   0.4711   1.3370   1.3371
     1.3383   1.8312   1.8315   1.8328   1.8964   1.8978   1.8983   1.8983
     1.8986   1.8990   1.9198   1.9201   1.9208   2.1325   2.1327   2.1335
     2.2876   3.2734   3.2734   3.2744   3.6305   3.6312   3.6315   3.7668
     3.7669   3.7671   3.7673   3.7678   3.7691   3.7946   3.7953   3.7957
     3.8388   3.8389   3.8401   4.0629   4.0637   4.0640   4.3653   4.3656
     4.3668   4.4917   4.4926   4.4930   4.9029   4.9039   4.9041   4.9514
     4.9518   4.9533   5.0775   5.0790   5.2367   5.2380   5.2382   5.3921
     5.4736   5.4751   6.1035   6.1052

          k =-0.3750 0.3750-0.3750 (  9237 PWs)   bands (ev):

    -5.6047  -5.2425  -4.5362  -4.5359  -4.5347  -4.4024  -4.4021  -4.4009
    -3.9067  -3.9064  -3.9052  -3.5192  -3.3884  -3.3882  -3.3870  -3.0154
    -3.0149  -3.0138  -2.4682  -2.4676  -2.4672  -2.4669  -2.4667  -2.4647
    -2.3875  -2.3867  -2.3857  -0.6782  -0.6513  -0.6508  -0.6490  -0.6224
    -0.6213  -0.6202  -0.6199  -0.6198  -0.6183   0.0524   0.0528   0.0543
     0.0605   0.0606   0.0619   0.3185   0.3187   0.3199   1.5848   1.5849
     1.5861   1.8988   1.8990   1.9003   2.0582   2.0596   2.0603   2.0603
     2.0606   2.0608   2.1836   2.1840   2.1848   2.5842   2.5843   2.5853
     2.8958   2.8960   2.8970   3.0633   3.5235   3.5238   3.5239   3.5242
     3.5246   3.5259   3.6147   3.6154   3.6157   3.6971   3.6978   3.6982
     3.7511   3.7512   3.7525   3.9553   3.9554   3.9568   4.2520   4.2528
     4.2531   4.5830   4.5832   4.5847   4.6464   4.6848   4.6858   4.6861
     4.7120   4.7129   4.7132   5.0398   5.0412   5.1093   5.1104   5.1107
     5.6257   5.6272   5.9546   5.9562

          k = 0.5000-0.5000 0.5000 (  9264 PWs)   bands (ev):

    -5.4458  -5.4449  -4.4918  -4.4911  -4.4909  -4.4904  -4.4903  -4.4884
    -3.6655  -3.6644  -3.6639  -3.6638  -3.6633  -3.6620  -3.4192  -2.6905
    -2.6889  -2.6883  -2.6882  -2.6876  -2.6868  -2.4657  -2.4652  -2.4648
    -2.4645  -2.4643  -2.4622  -0.8220  -0.6337  -0.6326  -0.6315  -0.6312
    -0.6311  -0.6296  -0.3289  -0.3288  -0.3280  -0.3279  -0.3271  -0.3250
     0.1865   0.1870   0.1880   0.1883   0.1887   0.1895   1.7927   1.7931
     1.7944   1.7945   1.7949   1.7960   2.1386   2.1400   2.1408   2.1410
     2.1411   2.1412   2.5179   2.5184   2.5186   2.5192   2.5194   2.5200
     3.1395   3.1398   3.1402   3.1403   3.1411   3.1417   3.4115   3.4118
     3.4119   3.4123   3.4126   3.4139   3.6357   3.6369   3.6371   3.6374
     3.6377   3.6385   3.8556   3.8566   4.2225   4.2225   4.2227   4.2229
     4.2237   4.2260   4.4616   4.4638   4.4639   4.4640   4.4642   4.4645
     4.9240   4.9261   4.9263   4.9264   4.9268   4.9273   5.0271   5.0285
     5.7878   5.7906   5.7907   5.7910

          k = 0.0000 0.2500 0.0000 (  9265 PWs)   bands (ev):

    -5.7812  -4.6003  -4.5993  -4.5988  -4.5978  -4.3235  -4.1750  -4.1740
    -4.1735  -4.1726  -3.8511  -3.8496  -3.8496  -3.8481  -3.3760  -2.7575
    -2.7562  -2.7561  -2.7548  -2.5346  -2.5340  -2.5330  -2.5324  -2.2003
    -2.1990  -2.1990  -2.1976  -0.7998  -0.7985  -0.7984  -0.7971  -0.5750
    -0.5747  -0.5734  -0.5731  -0.2762  -0.2749  -0.2747  -0.2734   0.4380
     0.4391   0.4396   0.4407   0.5058   1.2015   1.2025   1.2026   1.2035
     1.3168   1.3179   1.3184   1.3195   1.7334   1.7339   1.7342   1.7347
     1.7995   1.8000   1.8004   1.8009   1.8619   1.8627   1.8628   1.8636
     2.0014   3.5840   3.5840   3.6489   3.6495   3.6496   3.6501   3.7735
     3.7739   3.7743   3.7747   3.8184   3.8193   3.8194   3.8203   4.0212
     4.0212   4.1126   4.1133   4.1134   4.1142   4.1761   4.1766   4.1773
     4.1777   4.9868   4.9879   4.9887   4.9896   5.0238   5.0243   5.0245
     5.0249   5.0928   5.0940   5.0944   5.0957   5.4125   5.4128   5.4132
     5.4135   6.0588   6.1232   6.1233

          k =-0.1250 0.3750-0.1250 (  9261 PWs)   bands (ev):

    -5.7269  -4.8899  -4.6593  -4.6582  -4.5118  -4.4358  -4.2212  -4.0400
    -4.0388  -4.0248  -4.0239  -3.8507  -3.5726  -3.5715  -3.0977  -3.0729
    -3.0719  -2.8228  -2.7149  -2.7138  -2.5888  -2.5882  -2.4557  -2.1816
    -2.1807  -2.0422  -2.0409  -0.9621  -0.9608  -0.8017  -0.8003  -0.6696
    -0.5958  -0.5942  -0.4404  -0.3171  -0.3158  -0.1251   0.0005   0.0018
     0.1321   0.2604   0.2615   0.6732   0.7868   0.7876   1.1121   1.4691
     1.4701   1.5655   1.5666   1.8007   1.8013   1.8598   1.8606   1.8801
     1.8808   1.9916   1.9982   1.9988   2.0399   2.0409   2.0421   2.1611
     2.3269   3.3624   3.3631   3.4124   3.5197   3.5693   3.5701   3.6084
     3.6090   3.6713   3.6719   3.6737   3.6743   3.9294   3.9302   3.9374
     3.9383   3.9753   4.0466   4.0473   4.1178   4.1725   4.3221   4.3803
     4.3812   4.4285   4.6028   4.6038   4.7588   4.7597   4.7911   4.8428
     4.9821   4.9898   5.0889   5.0901   5.0995   5.3602   5.3605   5.3900
     5.5602   5.5790   5.9793   6.0899

          k =-0.2500 0.5000-0.2500 (  9240 PWs)   bands (ev):

    -5.6272  -5.1450  -4.6745  -4.6735  -4.6569  -4.2321  -4.2270  -4.1882
    -4.1872  -3.8362  -3.8353  -3.5708  -3.3852  -3.3842  -3.2644  -3.2633
    -3.1027  -2.7895  -2.6532  -2.6520  -2.6408  -2.6402  -2.6000  -2.1939
    -2.1931  -2.1350  -2.1337  -0.8870  -0.8860  -0.7813  -0.7799  -0.6026
    -0.6010  -0.5621  -0.5105  -0.4012  -0.3998  -0.3561  -0.2403   0.1130
     0.1142   0.2169   0.2182   0.3665   0.3673   0.9163   0.9268   1.5919
     1.5930   1.8161   1.8172   1.9236   1.9242   2.0323   2.0331   2.1034
     2.1042   2.1997   2.2459   2.2470   2.3644   2.3650   2.4946   2.6066
     2.8026   3.0053   3.0062   3.0984   3.2879   3.2888   3.4934   3.5642
     3.5651   3.6215   3.6220   3.6257   3.6264   3.6450   3.6456   3.7988
     3.8705   3.8711   3.8718   4.0275   4.0284   4.1518   4.1527   4.2294
     4.3535   4.3889   4.4881   4.4891   4.5431   4.5988   4.5997   4.6276
     4.8817   4.9096   4.9677   5.0101   5.0111   5.1274   5.1276   5.2381
     5.2807   5.7206   5.8083   5.9991

          k = 0.6250-0.3750 0.6250 (  9234 PWs)   bands (ev):

    -5.4823  -5.3621  -4.7581  -4.6463  -4.6452  -4.2937  -4.2926  -4.1893
    -3.9886  -3.6757  -3.6748  -3.6133  -3.6124  -3.4103  -3.3597  -2.9397
    -2.9385  -2.8797  -2.6885  -2.6879  -2.5767  -2.5755  -2.4626  -2.4088
    -2.4076  -2.2316  -2.2309  -0.7936  -0.7368  -0.7353  -0.6192  -0.6184
    -0.5944  -0.5809  -0.5794  -0.5030  -0.5016  -0.2854  -0.1753  -0.0442
    -0.0434  -0.0078  -0.0065   0.3860   0.3872   0.7526   1.1425   1.5405
     1.5417   2.0202   2.0209   2.0364   2.0376   2.1618   2.1627   2.3835
     2.3846   2.4287   2.4296   2.4650   2.4736   2.6417   2.6427   2.7218
     2.8652   2.8658   3.1113   3.1121   3.1504   3.1802   3.4241   3.4249
     3.4469   3.4473   3.4936   3.4944   3.5061   3.5842   3.6164   3.6169
     3.7379   3.7387   3.7861   3.7866   3.8021   3.9916   4.1116   4.2177
     4.2186   4.4033   4.4056   4.4064   4.4601   4.5583   4.7627   4.8160
     4.8171   4.8307   4.8310   4.8496   4.8506   4.8549   4.9795   5.1096
     5.3999   5.6323   5.8577   5.8838

          k = 0.5000-0.2500 0.5000 (  9225 PWs)   bands (ev):

    -5.5359  -5.2941  -4.8154  -4.5729  -4.5718  -4.3555  -4.3544  -4.1105
    -3.9368  -3.9359  -3.7115  -3.5902  -3.4445  -3.3595  -3.3586  -3.2033
    -2.7334  -2.7323  -2.7303  -2.7292  -2.6230  -2.6218  -2.4891  -2.4878
    -2.2862  -2.2856  -2.1476  -0.9043  -0.7447  -0.6777  -0.6761  -0.5998
    -0.5985  -0.5265  -0.5251  -0.4134  -0.4124  -0.2745  -0.2738  -0.2020
    -0.1117  -0.1104   0.2426   0.5394   0.5406   0.5671   1.2964   1.3625
     1.3637   1.9825   1.9832   2.1499   2.1508   2.1677   2.1688   2.2902
     2.3134   2.3143   2.3471   2.3480   2.3518   2.6288   2.8001   2.8015
     2.8025   2.8493   2.8501   3.1681   3.1688   3.3237   3.4509   3.4514
     3.4571   3.4576   3.4636   3.4644   3.5570   3.6531   3.6538   3.6766
     3.7444   3.7713   3.7880   3.7889   4.0042   4.0049   4.0588   4.0590
     4.1876   4.3662   4.5372   4.5375   4.6431   4.6441   4.6889   4.6899
     4.7769   4.7887   4.8257   4.9038   4.9596   5.0117   5.0128   5.0186
     5.4657   5.5816   5.6931   6.0373

          k = 0.3750-0.1250 0.3750 (  9245 PWs)   bands (ev):

    -5.6652  -5.0643  -4.8280  -4.4562  -4.4552  -4.3741  -4.3731  -4.1634
    -4.1624  -3.9891  -3.7913  -3.6553  -3.5255  -3.4075  -3.0779  -3.0770
    -3.0555  -3.0544  -2.7620  -2.7613  -2.3985  -2.3972  -2.3766  -2.3752
    -2.3486  -2.3480  -1.9385  -1.0902  -0.6809  -0.6801  -0.6796  -0.6786
    -0.6164  -0.6148  -0.4471  -0.4457  -0.4344  -0.2185  -0.2172  -0.0926
     0.0992   0.0999   0.3375   0.6917   0.7003   0.7015   1.1277   1.1289
     1.3092   1.8579   1.8585   2.0100   2.0108   2.0376   2.0445   2.0453
     2.0508   2.1352   2.1362   2.1701   2.1708   2.1997   2.3490   2.3497
     2.5447   3.1600   3.1734   3.1743   3.4203   3.4211   3.4766   3.4773
     3.5163   3.6430   3.6435   3.6454   3.7305   3.7311   3.7777   3.9042
     3.9046   3.9910   3.9917   3.9926   4.0715   4.0720   4.2752   4.2755
     4.3377   4.3711   4.3715   4.4192   4.4201   4.6866   4.8239   4.9782
     4.9792   4.9952   5.0827   5.1040   5.1085   5.1285   5.1550   5.1561
     5.3175   5.5246   5.7771   6.1608

          k = 0.2500 0.0000 0.2500 (  9243 PWs)   bands (ev):

    -5.7497  -4.7960  -4.7959  -4.3505  -4.3495  -4.3493  -4.3484  -4.2958
    -4.2948  -3.9576  -3.9573  -3.8246  -3.8245  -3.3541  -3.3530  -3.0868
    -2.7785  -2.7778  -2.7776  -2.7770  -2.4119  -2.4113  -2.3151  -2.3138
    -2.3138  -2.3125  -2.0012  -1.0062  -0.7394  -0.7380  -0.7380  -0.7366
    -0.5738  -0.5722  -0.3609  -0.3596  -0.3593  -0.3579   0.0419   0.0510
     0.0520   0.4817   0.4824   0.8809   0.8818   0.8821   0.8829   1.1479
     1.1485   1.7642   1.7648   1.7944   1.7954   1.8233   1.8534   1.8542
     1.8544   1.8551   1.9233   1.9242   1.9344   1.9714   1.9720   1.9720
     1.9726   3.4612   3.4620   3.5196   3.5203   3.5503   3.5503   3.7327
     3.7335   3.7698   3.8221   3.8222   3.8457   3.8464   3.8465   3.8472
     3.8908   3.8910   4.0575   4.0577   4.1987   4.1996   4.1996   4.2005
     4.4756   4.6668   4.6674   4.6675   4.6681   4.8498   4.8508   5.1705
     5.1709   5.1932   5.1935   5.2133   5.2143   5.2149   5.2161   5.3643
     5.3656   5.7088   5.9943   6.2262

          k = 0.0000 0.5000 0.0000 (  9229 PWs)   bands (ev):

    -5.6887  -4.7371  -4.7360  -4.7355  -4.7345  -4.7137  -3.8961  -3.8952
    -3.8947  -3.8938  -3.7753  -3.7738  -3.7738  -3.7723  -3.0269  -3.0255
    -3.0255  -3.0241  -2.8289  -2.6999  -2.6993  -2.6984  -2.6978  -1.9369
    -1.9356  -1.9356  -1.9343  -1.0331  -1.0318  -1.0317  -1.0303  -0.6034
    -0.6028  -0.6019  -0.6013  -0.2209   0.0122   0.0135   0.0136   0.0149
     0.0799   0.0811   0.0814   0.0826   1.0679   1.0690   1.0691   1.0701
     1.8089   1.8100   1.8105   1.8116   1.8752   1.8758   1.8760   1.8766
     1.9851   1.9856   1.9859   1.9865   2.2589   2.2600   2.2601   2.2611
     2.7553   3.3389   3.3396   3.3397   3.3403   3.4052   3.4062   3.4062
     3.4072   3.4449   3.4449   3.7784   3.7788   3.7794   3.7797   4.1217
     4.1220   4.1229   4.1232   4.1793   4.1800   4.1801   4.1808   4.3152
     4.3152   4.5246   4.5255   4.5263   4.5272   4.6490   4.6504   4.6505
     4.6519   4.8128   4.8133   4.8135   4.8140   5.5556   5.5559   5.5563
     5.5567   5.5742   5.8096   5.8096

          k =-0.1250 0.6250-0.1250 (  9244 PWs)   bands (ev):

    -5.6042  -5.0041  -4.8732  -4.7688  -4.7678  -4.5403  -3.9366  -3.9355
    -3.9003  -3.7293  -3.7284  -3.5949  -3.4771  -3.4760  -3.3452  -3.3442
    -2.9475  -2.9465  -2.9294  -2.8041  -2.8035  -2.7890  -2.5282  -1.9202
    -1.9193  -1.8827  -1.8813  -1.1069  -1.1057  -1.0135  -1.0121  -0.5943
    -0.5916  -0.5902  -0.5777  -0.4956  -0.4026  -0.0662  -0.0650  -0.0571
    -0.0558   0.3078   0.3136   0.3149   0.6464   0.6474   1.2452   1.2463
     1.5897   1.9567   1.9574   2.0539   2.0550   2.0869   2.0877   2.0883
     2.0890   2.2430   2.2436   2.4199   2.5078   2.5090   2.5445   2.6830
     3.0424   3.0431   3.0497   3.0921   3.0930   3.2734   3.2740   3.2823
     3.2832   3.2938   3.4082   3.6371   3.6374   3.8101   3.8108   3.8901
     4.0038   4.0047   4.0702   4.1475   4.1483   4.1929   4.1941   4.2128
     4.2672   4.2681   4.3358   4.3367   4.4005   4.4656   4.4882   4.5318
     4.6034   4.6588   4.7768   4.7777   4.8149   5.0360   5.4626   5.4923
     5.4927   5.6223   5.7264   5.7369

          k = 0.7500-0.2500 0.7500 (  9232 PWs)   bands (ev):

    -5.4745  -5.2332  -4.9886  -4.7574  -4.7564  -4.3037  -4.0567  -4.0556
    -3.8675  -3.6500  -3.6490  -3.5290  -3.5282  -3.3840  -3.1564  -3.1553
    -3.1436  -3.0398  -2.8982  -2.8976  -2.8394  -2.8382  -2.2041  -2.1055
    -2.1042  -1.9873  -1.9866  -0.9200  -0.9184  -0.9172  -0.9094  -0.9087
    -0.7118  -0.5961  -0.5473  -0.5459  -0.1872  -0.1859  -0.1814  -0.1801
    -0.1694   0.2215   0.2225   0.5322   0.5538   0.5551   1.2672   1.2684
     1.3633   2.0493   2.0499   2.2327   2.2335   2.2646   2.2658   2.3929
     2.3939   2.6326   2.6522   2.6527   2.7085   2.7098   2.7339   2.7348
     2.8531   2.8539   2.9945   3.1313   3.2030   3.2034   3.2041   3.2796
     3.2940   3.3156   3.3160   3.4103   3.5466   3.5471   3.5534   3.5537
     3.6421   3.6432   3.7768   3.9950   4.0340   4.0346   4.0518   4.0526
     4.2897   4.2907   4.3238   4.3786   4.4392   4.5564   4.5573   4.6238
     4.6588   4.6597   4.6812   4.6862   4.8315   4.8464   5.2520   5.2523
     5.3036   5.4368   5.6397   5.8930

          k = 0.6250-0.1250 0.6250 (  9230 PWs)   bands (ev):

    -5.4212  -5.3006  -5.0592  -4.7013  -4.7003  -4.1347  -4.1336  -4.0310
    -3.9264  -3.9254  -3.7947  -3.3550  -3.3500  -3.3384  -3.2980  -3.2972
    -2.9790  -2.9783  -2.8326  -2.8314  -2.7048  -2.7036  -2.4243  -2.4231
    -2.0978  -2.0972  -1.8816  -1.2241  -0.7961  -0.7946  -0.7598  -0.6008
    -0.6001  -0.5797  -0.4656  -0.4642  -0.3468  -0.3456  -0.2718  -0.2705
    -0.1828  -0.1818   0.2788   0.7118   0.7514   0.7527   1.0963   1.1432
     1.1444   2.0308   2.0314   2.2907   2.2915   2.3813   2.3824   2.4438
     2.4447   2.6361   2.7423   2.7433   2.7450   2.7460   2.7629   2.8503
     2.8511   2.8923   3.0160   3.0909   3.0919   3.1757   3.1766   3.1768
     3.1774   3.4121   3.4512   3.4526   3.4528   3.4960   3.4963   3.5303
     3.5306   3.5644   3.7733   3.8839   3.8844   3.9563   4.0270   4.0634
     4.0643   4.1580   4.3748   4.4624   4.4633   4.6055   4.6065   4.7600
     4.7610   4.8304   4.9002   4.9065   4.9296   4.9299   4.9908   5.0546
     5.1073   5.2659   5.4892   6.0365

          k = 0.5000 0.0000 0.5000 (  9255 PWs)   bands (ev):

    -5.5656  -5.0838  -5.0838  -4.6010  -4.5999  -4.1704  -4.1694  -4.1692
    -4.1682  -3.7286  -3.6799  -3.6797  -3.5108  -3.5103  -3.0407  -3.0401
    -3.0399  -3.0393  -2.7491  -2.7480  -2.5495  -2.5483  -2.5482  -2.5469
    -2.2229  -2.2223  -1.7306  -1.3371  -0.6872  -0.6856  -0.5287  -0.5275
    -0.5151  -0.5140  -0.5140  -0.5128  -0.3532  -0.3519  -0.3515  -0.3502
    -0.2568  -0.2561   0.7530   0.7826   0.7836   0.9351   0.9360   0.9362
     0.9371   1.9207   1.9213   2.1967   2.1976   2.1977   2.1986   2.2961
     2.3368   2.3379   2.3981   2.5841   2.5849   2.5850   2.5858   2.7985
     2.7996   3.0480   3.0489   3.0853   3.0860   3.1912   3.1923   3.2483
     3.2485   3.5297   3.5616   3.5621   3.5625   3.5630   3.7662   3.7666
     3.7666   3.7670   3.8606   3.8606   3.9552   3.9553   4.2289   4.2299
     4.2300   4.2309   4.3405   4.3414   4.5895   4.5898   4.6651   4.8954
     4.9131   4.9141   4.9147   4.9158   4.9922   4.9926   5.1173   5.1175
     5.3111   5.3126   5.3627   6.1338

          k = 0.0000 0.7500 0.0000 (  9244 PWs)   bands (ev):

    -5.5349  -5.0476  -4.8196  -4.8186  -4.8181  -4.8171  -3.6510  -3.6495
    -3.6495  -3.6481  -3.5876  -3.5868  -3.5862  -3.5853  -3.2708  -3.2694
    -3.2693  -3.2679  -2.9569  -2.9563  -2.9555  -2.9549  -2.2349  -1.6953
    -1.6940  -1.6940  -1.6927  -1.2533  -1.2520  -1.2519  -1.2506  -0.9261
    -0.5635  -0.5626  -0.5621  -0.5611  -0.2128  -0.2116  -0.2115  -0.2102
     0.3094   0.3107   0.3108   0.3121   0.8592   0.8603   0.8604   0.8615
     2.1363   2.1371   2.1371   2.1379   2.2529   2.2535   2.2538   2.2544
     2.2790   2.2801   2.2802   2.2814   2.8035   2.8047   2.8049   2.8060
     2.9416   2.9426   2.9426   2.9435   2.9606   2.9612   2.9614   2.9621
     3.3606   3.3606   3.5036   3.8151   3.8154   3.8162   3.8165   4.0076
     4.0081   4.0089   4.0092   4.0319   4.0326   4.0332   4.0339   4.0588
     4.0600   4.0601   4.0615   4.2877   4.2884   4.2885   4.2892   4.6120
     4.6126   4.6127   4.6133   4.6534   4.6534   4.9413   5.4232   5.4232
     5.6451   5.6455   5.6458   5.6462

          k = 0.8750-0.1250 0.8750 (  9231 PWs)   bands (ev):

    -5.4208  -5.1769  -5.0604  -4.8245  -4.8234  -4.5924  -3.7832  -3.7821
    -3.5844  -3.5834  -3.5449  -3.4116  -3.4108  -3.3375  -3.3364  -3.3354
    -3.1665  -3.1574  -3.1563  -3.1045  -3.0924  -3.0917  -1.9150  -1.7878
    -1.7865  -1.7335  -1.7328  -1.2627  -1.1940  -1.1932  -1.1708  -1.1694
    -0.6530  -0.5843  -0.5028  -0.5014  -0.3234  -0.3221  -0.2750  -0.0083
     0.2041   0.2053   0.4466   0.4477   0.6390   0.6403   0.9573   0.9586
     1.9757   2.2212   2.2219   2.3675   2.3683   2.4171   2.4180   2.4490
     2.4502   2.5518   2.5524   2.6487   2.6496   2.6952   2.6960   2.8478
     2.8487   2.9049   2.9055   2.9603   2.9702   3.0722   3.0736   3.2343
     3.2959   3.3521   3.4624   3.5856   3.6399   3.6404   3.6603   3.6616
     3.7018   3.7024   3.7517   3.8522   3.8527   3.9327   4.1044   4.1053
     4.2095   4.2248   4.2257   4.2476   4.2994   4.3002   4.3891   4.4202
     4.5055   4.5063   4.5135   4.6548   4.8443   4.8646   5.2296   5.2991
     5.4985   5.5602   5.5606   5.8171

          k = 0.7500 0.0000 0.7500 (  9214 PWs)   bands (ev):

    -5.2632  -5.2616  -5.2614  -4.7856  -4.7846  -4.3281  -3.8764  -3.8754
    -3.8752  -3.8742  -3.4684  -3.4681  -3.2363  -3.2357  -3.2071  -3.2066
    -3.2064  -3.2059  -3.0120  -3.0108  -3.0107  -3.0095  -2.0974  -2.0962
    -1.9065  -1.9059  -1.6232  -1.5327  -0.9727  -0.9712  -0.9148  -0.9142
    -0.7261  -0.7247  -0.4057  -0.4044  -0.4040  -0.4027   0.0288   0.0299
     0.0299   0.0310   0.1739   0.1751   0.9101   0.9111   0.9113   0.9124
     1.5837   2.1729   2.1735   2.4729   2.4735   2.4737   2.4743   2.4919
     2.4930   2.6201   2.6208   2.6852   2.6862   2.8787   2.8791   2.9601
     2.9776   2.9779   2.9781   2.9784   3.0290   3.1736   3.1747   3.1953
     3.1961   3.1965   3.1973   3.3825   3.5134   3.5137   3.5144   3.5147
     3.5647   3.7389   3.7402   3.7993   3.7994   3.8363   3.8373   4.1657
     4.1658   4.3169   4.3177   4.3181   4.3189   4.4352   4.4362   4.4368
     4.4377   4.5773   4.7277   4.7279   5.0525   5.0526   5.1676   5.1692
     5.2940   5.2944   5.3117   5.9557

          k = 0.0000-1.0000 0.0000 (  9272 PWs)   bands (ev):

    -5.3210  -5.3210  -4.8480  -4.8469  -4.8464  -4.8454  -3.4831  -3.4808
    -3.4804  -3.4802  -3.4802  -3.4800  -3.4796  -3.4774  -3.2664  -3.2659
    -3.2652  -3.2649  -3.2649  -3.2645  -3.2638  -3.2633  -1.5988  -1.5988
    -1.4710  -1.4697  -1.4686  -1.4685  -1.4685  -1.4684  -1.4673  -1.4660
    -0.4317  -0.4305  -0.4296  -0.4295  -0.4291  -0.4291  -0.4281  -0.4269
     0.5978   0.5984   0.5995   0.5996   0.5997   0.5998   0.6009   0.6016
     2.5016   2.5022   2.5028   2.5028   2.5030   2.5030   2.5035   2.5040
     2.5257   2.5257   2.5268   2.5268   2.5854   2.5855   2.5862   2.5863
     2.5864   2.5865   2.5873   2.5873   3.3326   3.3326   3.4218   3.4223
     3.4231   3.4233   3.4236   3.4238   3.4247   3.4251   3.7722   3.7723
     3.7727   3.7728   3.8941   3.8946   3.8956   3.8956   3.8959   3.8959
     3.8970   3.8975   4.2400   4.2400   4.4331   4.4342   4.4344   4.4344
     4.4346   4.4347   4.4348   4.4360   5.0281   5.0281   5.0281   5.0281
     5.6754   5.6759   5.6762   5.6766

          k =-0.2500 0.5000 0.0000 (  9250 PWs)   bands (ev):

    -5.6581  -4.9382  -4.9382  -4.6854  -4.4784  -4.4783  -4.2139  -4.0516
    -4.0513  -3.7501  -3.7500  -3.7096  -3.7092  -3.3934  -3.2848  -3.0275
    -3.0268  -2.8533  -2.8528  -2.8084  -2.6301  -2.5994  -2.5988  -2.1443
    -2.1434  -2.0707  -1.8236  -1.1937  -0.8592  -0.8499  -0.8486  -0.5903
    -0.5890  -0.5237  -0.5225  -0.3374  -0.2669  -0.2658  -0.2289  -0.1048
    -0.1031   0.3759   0.4092   0.4915   0.4926   0.9914   0.9925   1.3553
     1.3561   1.7144   1.8392   1.9048   1.9596   1.9603   2.0324   2.1542
     2.1625   2.1627   2.1853   2.1859   2.2956   2.2965   2.4009   2.4018
     2.6336   3.1636   3.2333   3.2846   3.2852   3.3301   3.3865   3.4441
     3.4452   3.4764   3.5351   3.5731   3.5981   3.8487   3.8493   3.9276
     3.9277   4.1483   4.1496   4.1503   4.1510   4.1537   4.1826   4.2674
     4.2678   4.2744   4.2747   4.3993   4.5613   4.5628   4.5847   4.8575
     4.8590   4.8796   4.8806   4.9933   4.9942   5.1967   5.3185   5.3186
     5.5223   5.5225   5.6793   6.0495

          k = 0.6250-0.3750 0.8750 (  9239 PWs)   bands (ev):

    -5.5429  -5.1814  -4.9418  -4.8156  -4.4779  -4.3456  -4.2583  -4.0379
    -3.8881  -3.8439  -3.7088  -3.5350  -3.4593  -3.4346  -3.3258  -3.1024
    -2.9706  -2.9531  -2.8691  -2.8059  -2.7331  -2.5257  -2.4918  -2.3394
    -2.2725  -1.9949  -1.8748  -1.1773  -0.9039  -0.7047  -0.6578  -0.6439
    -0.5834  -0.5816  -0.4906  -0.4831  -0.4235  -0.3699  -0.3387  -0.2376
     0.0278   0.0591   0.3358   0.5119   0.6961   0.7258   1.0365   1.1551
     1.5891   1.8233   1.9405   2.0156   2.0774   2.2106   2.3224   2.3528
     2.3762   2.3923   2.4713   2.5382   2.5888   2.6277   2.7769   2.8662
     2.8838   2.9330   2.9558   3.0453   3.0543   3.2104   3.2951   3.3487
     3.3510   3.3598   3.3634   3.4333   3.5227   3.5557   3.6908   3.7949
     3.8043   3.8458   3.8779   3.8935   3.9141   4.0156   4.0641   4.1193
     4.2429   4.3784   4.4446   4.4962   4.5401   4.5634   4.5828   4.6316
     4.6806   4.7707   4.7993   4.8913   4.9324   5.0291   5.0795   5.1925
     5.2922   5.4172   5.6892   5.9762

          k = 0.5000-0.2500 0.7500 (  9258 PWs)   bands (ev):

    -5.3845  -5.3836  -4.9014  -4.9005  -4.4350  -4.4334  -4.0008  -3.9993
    -3.9849  -3.9842  -3.6010  -3.6000  -3.3581  -3.3317  -3.3304  -3.1094
    -3.1083  -2.8735  -2.8541  -2.8535  -2.6452  -2.6433  -2.4046  -2.4031
    -2.1642  -2.1633  -1.9677  -0.9212  -0.9133  -0.9125  -0.7871  -0.6037
    -0.5551  -0.5539  -0.4390  -0.4379  -0.3727  -0.3710  -0.3395  -0.3381
     0.0534   0.0542   0.1957   0.1968   0.9258   0.9277   0.9455   0.9465
     1.7662   1.7671   2.0079   2.1120   2.1129   2.4542   2.4544   2.5247
     2.5255   2.6520   2.6532   2.6789   2.6796   2.7236   2.7256   2.7303
     2.7964   2.9429   2.9438   3.1127   3.1138   3.1323   3.1332   3.3306
     3.3322   3.3703   3.3709   3.4364   3.4372   3.5810   3.5814   3.6598
     3.6615   3.7471   3.7478   3.8033   3.8044   3.8214   3.8224   4.0355
     4.3108   4.3114   4.3997   4.4009   4.5336   4.5957   4.5976   4.7129
     4.7133   4.7659   4.7674   4.9110   4.9886   4.9891   5.0084   5.0093
     5.2064   5.2085   5.8469   5.8478

          k = 0.7500-0.2500 1.0000 (  9231 PWs)   bands (ev):

    -5.5049  -5.0241  -5.0240  -5.0176  -4.5574  -4.5573  -4.0808  -3.7124
    -3.7120  -3.6663  -3.6284  -3.6282  -3.4494  -3.4489  -3.2598  -3.2593
    -3.1724  -2.9938  -2.9932  -2.9615  -2.9609  -2.8367  -2.2183  -2.0399
    -2.0394  -1.7421  -1.6649  -1.3606  -1.1419  -0.9225  -0.9116  -0.9109
    -0.6338  -0.6325  -0.4995  -0.4983  -0.3888  -0.3874  -0.1041   0.1507
     0.1520   0.1795   0.1811   0.2836   0.7250   0.7556   0.7570   1.4180
     1.8051   1.8056   2.0325   2.1381   2.1774   2.1782   2.3484   2.4138
     2.4139   2.4464   2.6634   2.6641   2.7530   2.7728   2.7736   2.8007
     2.9595   2.9607   3.0031   3.0035   3.0052   3.0062   3.1617   3.1850
     3.2552   3.2832   3.3253   3.4169   3.4784   3.6491   3.6496   3.7803
     3.7804   3.8750   3.8761   4.0416   4.0430   4.0643   4.0645   4.1231
     4.1247   4.2847   4.3799   4.3804   4.4290   4.4298   4.5199   4.5203
     4.5210   4.5430   4.6153   4.7414   4.7424   4.7954   5.2916   5.3797
     5.3797   5.6648   5.6650   5.6743

          k = 0.6250-0.1250 0.8750 (  9242 PWs)   bands (ev):

    -5.3608  -5.2402  -5.1177  -4.9999  -4.5311  -4.3069  -4.1829  -3.9702
    -3.7404  -3.6587  -3.5501  -3.4891  -3.3037  -3.2886  -3.2770  -3.2428
    -3.1670  -3.1382  -3.1104  -3.0447  -2.8493  -2.6967  -2.3271  -2.2138
    -1.8897  -1.8445  -1.6997  -1.2479  -1.2219  -1.1574  -0.7281  -0.7034
    -0.6721  -0.6376  -0.6287  -0.5554  -0.2584  -0.2400  -0.0859   0.0058
     0.0120   0.0171   0.2741   0.3544   0.3749   0.7098   1.0728   1.4561
     1.5163   1.9497   2.1199   2.2099   2.2532   2.4561   2.5358   2.5463
     2.5591   2.6847   2.7611   2.8005   2.8216   2.8558   2.8599   2.8708
     2.9303   2.9808   2.9913   3.0854   3.1070   3.1216   3.1372   3.1711
     3.2365   3.2614   3.2734   3.2850   3.3902   3.3938   3.4782   3.4836
     3.4895   3.6171   3.7938   3.8175   3.9891   4.0206   4.0352   4.0667
     4.1596   4.2533   4.2620   4.2730   4.3178   4.3684   4.5885   4.6071
     4.6169   4.6180   4.6509   4.7517   4.7530   5.0151   5.1277   5.1331
     5.2077   5.4126   5.5909   5.8184

          k = 0.5000 0.0000 0.7500 (  9235 PWs)   bands (ev):

    -5.4142  -5.1722  -5.1722  -4.9303  -4.4603  -4.2412  -4.2412  -4.0214
    -3.8124  -3.8120  -3.5664  -3.5661  -3.3243  -3.3237  -3.2340  -3.2335
    -3.0820  -3.0814  -2.9866  -2.9861  -2.6530  -2.5297  -2.5294  -2.3783
    -2.1705  -1.8155  -1.6457  -1.4561  -1.0447  -0.9157  -0.6800  -0.6787
    -0.5780  -0.5767  -0.5299  -0.4348  -0.4344  -0.3115  -0.1646  -0.1632
    -0.1069  -0.1054   0.4958   0.4971   0.5485   0.5498   1.1466   1.3508
     1.3512   1.9590   2.0457   2.1080   2.2942   2.2949   2.5501   2.5506
     2.6372   2.6383   2.7072   2.7075   2.7826   2.7827   2.9392   2.9967
     3.0047   3.0915   3.0922   3.0943   3.1006   3.1020   3.1031   3.1960
     3.1968   3.2731   3.2740   3.2948   3.2951   3.3393   3.3711   3.3712
     3.4660   3.7673   3.7679   4.0194   4.0199   4.0289   4.0303   4.1028
     4.1450   4.1463   4.1966   4.3673   4.3681   4.4674   4.4688   4.7931
     4.8025   4.8033   4.8036   4.8044   4.9428   4.9428   4.9714   5.0065
     5.0638   5.4550   5.4550   5.9295

          k =-0.2500-1.0000 0.0000 (  9216 PWs)   bands (ev):

    -5.2914  -5.2914  -5.0525  -5.0525  -4.5830  -4.5830  -3.8966  -3.8966
    -3.4635  -3.4631  -3.4627  -3.4623  -3.3437  -3.3433  -3.3428  -3.3424
    -3.2011  -3.2006  -3.2001  -3.1995  -3.0202  -3.0202  -2.0048  -2.0048
    -1.5878  -1.5878  -1.5135  -1.5135  -1.4332  -1.4332  -0.9299  -0.9299
    -0.6285  -0.6276  -0.6271  -0.6262  -0.1421  -0.1415  -0.1408  -0.1401
     0.1083   0.1083   0.4746   0.4751   0.4762   0.4766   1.0786   1.0786
     2.0351   2.0351   2.3421   2.3421   2.3960   2.3960   2.4453   2.4454
     2.7028   2.7029   2.7036   2.7037   2.7068   2.7070   2.7414   2.7414
     2.7972   2.7972   3.0272   3.0273   3.2178   3.2183   3.2185   3.2191
     3.2394   3.2395   3.3988   3.3989   3.4137   3.4137   3.5582   3.5591
     3.5596   3.5605   3.9397   3.9403   3.9410   3.9416   3.9890   3.9890
     4.1753   4.1753   4.2584   4.2589   4.2589   4.2594   4.4256   4.4256
     4.5361   4.5363   4.5368   4.5371   4.8952   4.8952   5.2318   5.2318
     5.3995   5.3995   5.7155   5.7155

          k =-0.5000-1.0000 0.0000 (  9224 PWs)   bands (ev):

    -5.2023  -5.2020  -5.2011  -5.2007  -4.2679  -4.2664  -4.2661  -4.2647
    -3.4161  -3.4158  -3.4152  -3.4149  -3.4148  -3.4145  -3.4139  -3.4136
    -3.1745  -3.1739  -3.1734  -3.1728  -2.5278  -2.5261  -2.5259  -2.5242
    -1.5583  -1.5575  -1.5575  -1.5567  -1.4221  -1.4221  -0.6984  -0.6975
    -0.6971  -0.6961  -0.4027  -0.4015  -0.4012  -0.4000   0.1845   0.1851
     0.1862   0.1866   0.1867   0.1871   0.1882   0.1888   1.5529   1.5532
     1.5541   1.5544   2.2848   2.2848   2.3790   2.3793   2.3803   2.3807
     2.9575   2.9576   2.9587   2.9587   2.9588   2.9588   2.9598   2.9599
     3.0100   3.0103   3.0107   3.0108   3.0113   3.0114   3.0122   3.0125
     3.0692   3.0701   3.0710   3.0720   3.5262   3.5272   3.5279   3.5288
     3.6073   3.6082   3.6088   3.6098   4.0688   4.0694   4.0705   4.0707
     4.0707   4.0709   4.0720   4.0727   4.5642   4.5643   4.5652   4.5654
     4.5707   4.5722   4.5725   4.5741   4.9499   4.9503   4.9516   4.9520
     5.5348   5.5352   5.5357   5.5360

          k =-0.1250 0.1250 0.1250 (  9282 PWs)   bands (ev):

    -5.7879  -4.7199  -4.4971  -4.4959  -4.4956  -4.2833  -4.2821  -4.2818
    -4.0927  -4.0915  -4.0913  -4.0855  -3.6206  -3.6195  -3.6191  -2.7782
    -2.7770  -2.7767  -2.4771  -2.4751  -2.4749  -2.4746  -2.4742  -2.4736
    -2.2460  -2.2450  -2.2442  -0.7793  -0.7775  -0.7771  -0.5622  -0.5608
    -0.5607  -0.5603  -0.5592  -0.5582  -0.2949  -0.2934  -0.2932   0.2291
     0.6474   0.6485   0.6487   0.8565   0.8580   0.8584   1.0867   1.0878
     1.0880   1.5455   1.5916   1.5930   1.5934   1.7515   1.7521   1.7524
     1.7619   1.7622   1.7625   1.7625   1.7630   1.7643   1.8320   1.8326
     1.8329   3.5892   3.5900   3.5902   3.6849   3.6852   3.6858   3.8246
     3.8255   3.8257   3.9034   3.9037   3.9044   3.9269   3.9273   3.9281
     3.9945   3.9958   3.9964   3.9965   3.9969   3.9970   4.2815   4.2819
     4.2827   4.9040   4.9054   4.9058   5.0949   5.0950   5.0961   5.1417
     5.1431   5.2184   5.2198   5.2203   5.2821   5.2822   5.2835   5.3415
     5.3430   5.9957   6.2132   6.2150

          k =-0.2500 0.2500 0.2500 (  9258 PWs)   bands (ev):

    -5.7196  -4.9989  -4.5379  -4.5367  -4.5364  -4.2689  -4.2677  -4.2674
    -4.1149  -4.1137  -4.1135  -3.7704  -3.3317  -3.3306  -3.3301  -3.0901
    -3.0889  -3.0886  -2.4727  -2.4707  -2.4705  -2.4701  -2.4698  -2.4692
    -2.2007  -2.1997  -2.1988  -0.8371  -0.8352  -0.8347  -0.5926  -0.5912
    -0.5912  -0.5907  -0.5896  -0.5886  -0.3010  -0.0898  -0.0884  -0.0884
     0.4526   0.4541   0.4545   0.4697   0.4707   0.4709   1.3371   1.3383
     1.3384   1.8313   1.8327   1.8330   1.8973   1.8978   1.8981   1.8981
     1.8986   1.9000   1.9197   1.9203   1.9208   2.1319   2.1327   2.1329
     2.2866   3.2730   3.2740   3.2741   3.6310   3.6313   3.6319   3.7653
     3.7667   3.7672   3.7674   3.7676   3.7677   3.7951   3.7954   3.7961
     3.8375   3.8386   3.8387   4.0635   4.0638   4.0645   4.3642   4.3654
     4.3657   4.4924   4.4928   4.4937   4.9038   4.9040   4.9050   4.9499
     4.9513   4.9517   5.0779   5.0793   5.2379   5.2381   5.2394   5.3907
     5.4741   5.4755   6.1043   6.1060

          k =-0.3750 0.3750 0.3750 (  9237 PWs)   bands (ev):

    -5.6047  -5.2425  -4.5366  -4.5354  -4.5350  -4.4028  -4.4016  -4.4012
    -3.9070  -3.9058  -3.9056  -3.5187  -3.3887  -3.3876  -3.3873  -3.0155
    -3.0144  -3.0139  -2.4694  -2.4674  -2.4672  -2.4668  -2.4665  -2.4659
    -2.3871  -2.3861  -2.3853  -0.6794  -0.6525  -0.6508  -0.6503  -0.6217
    -0.6203  -0.6202  -0.6199  -0.6188  -0.6177   0.0515   0.0531   0.0535
     0.0601   0.0614   0.0616   0.3184   0.3195   0.3198   1.5850   1.5862
     1.5863   1.8991   1.9004   1.9006   2.0594   2.0597   2.0600   2.0600
     2.0607   2.0621   2.1836   2.1843   2.1847   2.5833   2.5844   2.5844
     2.8956   2.8966   2.8968   3.0623   3.5220   3.5234   3.5237   3.5241
     3.5242   3.5244   3.6152   3.6155   3.6162   3.6976   3.6979   3.6986
     3.7500   3.7513   3.7514   3.9537   3.9551   3.9552   4.2527   4.2529
     4.2537   4.5814   4.5829   4.5831   4.6452   4.6857   4.6859   4.6868
     4.7127   4.7130   4.7141   5.0401   5.0415   5.1103   5.1105   5.1117
     5.6262   5.6277   5.9553   5.9569

          k = 0.5000-0.5000-0.5000 (  9264 PWs)   bands (ev):

    -5.4457  -5.4448  -4.4926  -4.4907  -4.4906  -4.4902  -4.4899  -4.4893
    -3.6656  -3.6643  -3.6638  -3.6638  -3.6632  -3.6622  -3.4186  -2.6897
    -2.6889  -2.6883  -2.6882  -2.6876  -2.6860  -2.4670  -2.4650  -2.4648
    -2.4644  -2.4641  -2.4635  -0.8234  -0.6331  -0.6316  -0.6315  -0.6312
    -0.6301  -0.6290  -0.3308  -0.3288  -0.3280  -0.3279  -0.3271  -0.3270
     0.1867   0.1874   0.1879   0.1881   0.1891   0.1896   1.7931   1.7942
     1.7947   1.7947   1.7961   1.7964   2.1403   2.1403   2.1404   2.1406
     2.1414   2.1428   2.5179   2.5185   2.5188   2.5193   2.5196   2.5200
     3.1385   3.1391   3.1400   3.1401   3.1405   3.1407   3.4100   3.4113
     3.4116   3.4120   3.4121   3.4124   3.6363   3.6370   3.6374   3.6377
     3.6379   3.6390   3.8546   3.8555   4.2195   4.2218   4.2226   4.2228
     4.2230   4.2230   4.4634   4.4636   4.4639   4.4639   4.4641   4.4662
     4.9257   4.9262   4.9265   4.9267   4.9269   4.9289   5.0274   5.0289
     5.7897   5.7900   5.7901   5.7929

          k = 0.2500 0.0000 0.0000 (  9265 PWs)   bands (ev):

    -5.7812  -4.5995  -4.5993  -4.5988  -4.5986  -4.3235  -4.1743  -4.1741
    -4.1735  -4.1733  -3.8501  -3.8496  -3.8496  -3.8491  -3.3760  -2.7568
    -2.7562  -2.7561  -2.7555  -2.5348  -2.5339  -2.5331  -2.5321  -2.1997
    -2.1990  -2.1990  -2.1982  -0.7993  -0.7985  -0.7985  -0.7976  -0.5753
    -0.5745  -0.5736  -0.5728  -0.2757  -0.2748  -0.2748  -0.2739   0.4388
     0.4390   0.4397   0.4399   0.5058   1.2011   1.2025   1.2025   1.2040
     1.3176   1.3177   1.3186   1.3187   1.7340   1.7340   1.7340   1.7340
     1.8001   1.8002   1.8002   1.8003   1.8621   1.8625   1.8630   1.8634
     2.0014   3.5835   3.5845   3.6487   3.6495   3.6495   3.6504   3.7740
     3.7741   3.7741   3.7742   3.8188   3.8193   3.8193   3.8198   4.0206
     4.0217   4.1120   4.1132   4.1135   4.1148   4.1764   4.1769   4.1769
     4.1775   4.9879   4.9879   4.9887   4.9888   5.0225   5.0241   5.0246
     5.0263   5.0936   5.0937   5.0947   5.0948   5.4108   5.4128   5.4132
     5.4152   6.0588   6.1220   6.1245

          k = 0.3750-0.1250 0.1250 (  9261 PWs)   bands (ev):

    -5.7269  -4.8899  -4.6590  -4.6584  -4.5118  -4.4359  -4.2214  -4.0396
    -4.0391  -4.0247  -4.0238  -3.8507  -3.5722  -3.5718  -3.0977  -3.0726
    -3.0718  -2.8233  -2.7149  -2.7144  -2.5889  -2.5872  -2.4559  -2.1818
    -2.1807  -2.0416  -2.0412  -0.9624  -0.9610  -0.8011  -0.8008  -0.6694
    -0.5962  -0.5954  -0.4391  -0.3164  -0.3151  -0.1252   0.0003   0.0009
     0.1321   0.2604   0.2605   0.6742   0.7863   0.7879   1.1131   1.4690
     1.4702   1.5655   1.5656   1.8013   1.8014   1.8599   1.8600   1.8803
     1.8804   1.9922   1.9984   1.9989   2.0402   2.0408   2.0416   2.1609
     2.3271   3.3623   3.3625   3.4130   3.5191   3.5692   3.5696   3.6082
     3.6094   3.6720   3.6723   3.6739   3.6745   3.9293   3.9298   3.9376
     3.9377   3.9747   4.0467   4.0482   4.1181   4.1719   4.3214   4.3808
     4.3813   4.4283   4.6025   4.6035   4.7588   4.7589   4.7910   4.8421
     4.9812   4.9908   5.0898   5.0906   5.1003   5.3602   5.3626   5.3892
     5.5591   5.5786   5.9781   6.0915

          k =-0.3750 0.1250 0.1250 (  9261 PWs)   bands (ev):

    -5.7269  -4.8898  -4.6592  -4.6585  -4.5118  -4.4357  -4.2212  -4.0397
    -4.0391  -4.0249  -4.0241  -3.8504  -3.5722  -3.5717  -3.0977  -3.0726
    -3.0719  -2.8226  -2.7148  -2.7143  -2.5898  -2.5881  -2.4551  -2.1821
    -2.1810  -2.0412  -2.0408  -0.9629  -0.9615  -0.8006  -0.8002  -0.6708
    -0.5946  -0.5938  -0.4407  -0.3168  -0.3155  -0.1262   0.0007   0.0013
     0.1320   0.2613   0.2615   0.6734   0.7861   0.7876   1.1119   1.4694
     1.4706   1.5666   1.5667   1.8011   1.8012   1.8601   1.8602   1.8806
     1.8807   1.9916   1.9981   1.9985   2.0393   2.0412   2.0421   2.1605
     2.3271   3.3628   3.3631   3.4120   3.5201   3.5691   3.5696   3.6076
     3.6086   3.6716   3.6722   3.6741   3.6744   3.9292   3.9297   3.9379
     3.9380   3.9759   4.0454   4.0470   4.1170   4.1731   4.3228   4.3809
     4.3814   4.4277   4.6021   4.6030   4.7595   4.7596   4.7900   4.8437
     4.9828   4.9898   5.0897   5.0905   5.0995   5.3582   5.3606   5.3912
     5.5611   5.5778   5.9804   6.0901

          k =-0.1250-0.3750-0.1250 (  9261 PWs)   bands (ev):

    -5.7269  -4.8898  -4.6593  -4.6582  -4.5118  -4.4359  -4.2214  -4.0400
    -4.0389  -4.0248  -4.0239  -3.8504  -3.5725  -3.5714  -3.0976  -3.0726
    -3.0716  -2.8231  -2.7154  -2.7143  -2.5888  -2.5882  -2.4552  -2.1821
    -2.1812  -2.0415  -2.0401  -0.9631  -0.9618  -0.8011  -0.7996  -0.6707
    -0.5958  -0.5942  -0.4394  -0.3161  -0.3147  -0.1262  -0.0002   0.0011
     0.1319   0.2603   0.2615   0.6743   0.7864   0.7872   1.1129   1.4695
     1.4705   1.5656   1.5667   1.8012   1.8017   1.8596   1.8603   1.8802
     1.8809   1.9922   1.9981   1.9987   2.0391   2.0411   2.0420   2.1604
     2.3273   3.3622   3.3629   3.4126   3.5196   3.5686   3.5695   3.6079
     3.6085   3.6721   3.6724   3.6741   3.6751   3.9287   3.9295   3.9374
     3.9382   3.9753   4.0464   4.0472   4.1172   4.1726   4.3221   4.3810
     4.3819   4.4276   4.6018   4.6028   4.7586   4.7596   4.7899   4.8430
     4.9818   4.9909   5.0902   5.0912   5.1005   5.3603   5.3606   5.3903
     5.5600   5.5774   5.9792   6.0917

          k = 0.5000-0.2500 0.2500 (  9240 PWs)   bands (ev):

    -5.6272  -5.1451  -4.6743  -4.6737  -4.6570  -4.2323  -4.2272  -4.1880
    -4.1874  -3.8360  -3.8352  -3.5708  -3.3849  -3.3841  -3.2641  -3.2636
    -3.1032  -2.7895  -2.6532  -2.6528  -2.6410  -2.6393  -2.6000  -2.1941
    -2.1927  -2.1344  -2.1342  -0.8874  -0.8856  -0.7809  -0.7808  -0.6028
    -0.6021  -0.5621  -0.5106  -0.4004  -0.3988  -0.3547  -0.2404   0.1130
     0.1132   0.2168   0.2171   0.3661   0.3677   0.9172   0.9279   1.5919
     1.5927   1.8160   1.8162   1.9243   1.9243   2.0322   2.0325   2.1035
     2.1036   2.2005   2.2460   2.2467   2.3645   2.3652   2.4952   2.6064
     2.8027   3.0052   3.0053   3.0991   3.2879   3.2885   3.4929   3.5647
     3.5651   3.6220   3.6226   3.6257   3.6271   3.6448   3.6453   3.7986
     3.8700   3.8710   3.8725   4.0273   4.0281   4.1519   4.1520   4.2294
     4.3529   4.3888   4.4881   4.4883   4.5425   4.5993   4.5998   4.6270
     4.8814   4.9106   4.9667   5.0108   5.0116   5.1274   5.1297   5.2390
     5.2798   5.7193   5.8072   6.0006

          k =-0.5000 0.2500 0.2500 (  9240 PWs)   bands (ev):

    -5.6272  -5.1450  -4.6744  -4.6738  -4.6569  -4.2320  -4.2271  -4.1881
    -4.1875  -3.8363  -3.8355  -3.5703  -3.3850  -3.3843  -3.2640  -3.2635
    -3.1025  -2.7894  -2.6529  -2.6525  -2.6417  -2.6401  -2.5995  -2.1946
    -2.1932  -2.1339  -2.1337  -0.8882  -0.8864  -0.7800  -0.7798  -0.6014
    -0.6007  -0.5633  -0.5115  -0.4011  -0.3995  -0.3563  -0.2405   0.1139
     0.1141   0.2174   0.2177   0.3655   0.3672   0.9165   0.9266   1.5927
     1.5935   1.8172   1.8174   1.9241   1.9241   2.0330   2.0333   2.1038
     2.1039   2.1997   2.2465   2.2472   2.3639   2.3646   2.4950   2.6060
     2.8016   3.0059   3.0060   3.0981   3.2876   3.2882   3.4939   3.5647
     3.5652   3.6217   3.6223   3.6245   3.6258   3.6445   3.6450   3.7982
     3.8698   3.8711   3.8714   4.0268   4.0277   4.1524   4.1525   4.2282
     4.3541   4.3879   4.4885   4.4887   4.5439   4.5995   4.6000   4.6284
     4.8805   4.9096   4.9684   5.0107   5.0116   5.1256   5.1278   5.2383
     5.2817   5.7215   5.8093   5.9994

          k =-0.2500-0.5000-0.2500 (  9240 PWs)   bands (ev):

    -5.6272  -5.1450  -4.6746  -4.6735  -4.6570  -4.2323  -4.2272  -4.1883
    -4.1872  -3.8362  -3.8353  -3.5703  -3.3850  -3.3840  -3.2643  -3.2632
    -3.1031  -2.7894  -2.6538  -2.6526  -2.6408  -2.6403  -2.5995  -2.1942
    -2.1934  -2.1345  -2.1331  -0.8878  -0.8868  -0.7809  -0.7795  -0.6025
    -0.6010  -0.5633  -0.5116  -0.4000  -0.3987  -0.3550  -0.2407   0.1129
     0.1141   0.2163   0.2176   0.3660   0.3668   0.9174   0.9276   1.5924
     1.5936   1.8162   1.8174   1.9242   1.9248   2.0324   2.0332   2.1031
     2.1040   2.2005   2.2462   2.2473   2.3641   2.3647   2.4956   2.6058
     2.8017   3.0050   3.0059   3.0987   3.2872   3.2881   3.4934   3.5647
     3.5655   3.6222   3.6226   3.6253   3.6258   3.6443   3.6448   3.7980
     3.8703   3.8708   3.8714   4.0266   4.0275   4.1517   4.1525   4.2282
     4.3536   4.3877   4.4877   4.4886   4.5433   4.5995   4.6004   4.6278
     4.8803   4.9106   4.9673   5.0112   5.0123   5.1276   5.1279   5.2391
     5.2809   5.7203   5.8082   6.0009

          k =-0.3750 0.6250-0.6250 (  9234 PWs)   bands (ev):

    -5.4823  -5.3621  -4.7582  -4.6460  -4.6454  -4.2934  -4.2928  -4.1894
    -3.9888  -3.6755  -3.6748  -3.6131  -3.6122  -3.4103  -3.3602  -2.9393
    -2.9389  -2.8797  -2.6886  -2.6871  -2.5767  -2.5764  -2.4625  -2.4084
    -2.4082  -2.2318  -2.2302  -0.7936  -0.7368  -0.7364  -0.6195  -0.6178
    -0.5945  -0.5810  -0.5805  -0.5021  -0.5003  -0.2841  -0.1756  -0.0447
    -0.0429  -0.0078  -0.0076   0.3860   0.3861   0.7537   1.1434   1.5406
     1.5411   2.0206   2.0210   2.0363   2.0367   2.1616   2.1620   2.3840
     2.3845   2.4288   2.4289   2.4658   2.4744   2.6416   2.6418   2.7224
     2.8652   2.8662   3.1112   3.1122   3.1502   3.1800   3.4240   3.4248
     3.4467   3.4472   3.4940   3.4944   3.5056   3.5844   3.6168   3.6174
     3.7378   3.7391   3.7861   3.7878   3.8015   3.9914   4.1114   4.2177
     4.2179   4.4027   4.4055   4.4057   4.4599   4.5577   4.7620   4.8167
     4.8172   4.8308   4.8328   4.8503   4.8511   4.8558   4.9784   5.1088
     5.4008   5.6312   5.8591   5.8826

          k = 0.3750-0.6250-0.6250 (  9234 PWs)   bands (ev):

    -5.4823  -5.3621  -4.7581  -4.6461  -4.6455  -4.2935  -4.2929  -4.1893
    -3.9885  -3.6757  -3.6749  -3.6134  -3.6125  -3.4097  -3.3596  -2.9391
    -2.9387  -2.8794  -2.6893  -2.6878  -2.5764  -2.5761  -2.4623  -2.4080
    -2.4078  -2.2325  -2.2309  -0.7950  -0.7355  -0.7350  -0.6204  -0.6185
    -0.5947  -0.5797  -0.5791  -0.5030  -0.5013  -0.2856  -0.1762  -0.0453
    -0.0436  -0.0069  -0.0067   0.3868   0.3869   0.7522   1.1428   1.5416
     1.5420   2.0208   2.0211   2.0376   2.0380   2.1626   2.1631   2.3843
     2.3847   2.4292   2.4293   2.4654   2.4735   2.6424   2.6427   2.7214
     2.8644   2.8654   3.1105   3.1115   3.1497   3.1798   3.4235   3.4243
     3.4462   3.4466   3.4941   3.4945   3.5066   3.5832   3.6165   3.6171
     3.7368   3.7381   3.7846   3.7862   3.8026   3.9905   4.1106   4.2178
     4.2179   4.4039   4.4062   4.4063   4.4589   4.5590   4.7635   4.8170
     4.8174   4.8290   4.8312   4.8503   4.8510   4.8547   4.9801   5.1105
     5.4002   5.6332   5.8579   5.8849

          k = 0.6250 0.3750 0.6250 (  9234 PWs)   bands (ev):

    -5.4823  -5.3621  -4.7582  -4.6463  -4.6453  -4.2937  -4.2927  -4.1895
    -3.9887  -3.6756  -3.6747  -3.6132  -3.6124  -3.4097  -3.3601  -2.9394
    -2.9383  -2.8794  -2.6886  -2.6880  -2.5774  -2.5761  -2.4623  -2.4085
    -2.4073  -2.2318  -2.2311  -0.7950  -0.7366  -0.7351  -0.6197  -0.6189
    -0.5948  -0.5807  -0.5793  -0.5017  -0.5004  -0.2843  -0.1764  -0.0449
    -0.0440  -0.0079  -0.0067   0.3856   0.3869   0.7533   1.1437   1.5410
     1.5422   2.0209   2.0216   2.0367   2.0378   2.1620   2.1628   2.3841
     2.3852   2.4284   2.4294   2.4661   2.4744   2.6415   2.6425   2.7221
     2.8648   2.8654   3.1106   3.1114   3.1496   3.1795   3.4233   3.4242
     3.4461   3.4464   3.4941   3.4949   3.5061   3.5834   3.6170   3.6175
     3.7372   3.7380   3.7858   3.7862   3.8020   3.9903   4.1104   4.2171
     4.2179   4.4034   4.4053   4.4063   4.4587   4.5584   4.7629   4.8170
     4.8178   4.8310   4.8314   4.8507   4.8516   4.8560   4.9791   5.1097
     5.4010   5.6321   5.8593   5.8836

          k =-0.2500 0.5000-0.5000 (  9225 PWs)   bands (ev):

    -5.5359  -5.2941  -4.8154  -4.5726  -4.5720  -4.3552  -4.3546  -4.1106
    -3.9366  -3.9358  -3.7118  -3.5906  -3.4445  -3.3593  -3.3584  -3.2032
    -2.7329  -2.7326  -2.7304  -2.7290  -2.6225  -2.6222  -2.4892  -2.4889
    -2.2864  -2.2847  -2.1477  -0.9043  -0.7447  -0.6780  -0.6773  -0.5989
    -0.5971  -0.5265  -0.5261  -0.4139  -0.4120  -0.2748  -0.2731  -0.2008
    -0.1117  -0.1116   0.2423   0.5394   0.5394   0.5682   1.2971   1.3626
     1.3629   1.9825   1.9833   2.1496   2.1501   2.1674   2.1680   2.2910
     2.3132   2.3136   2.3479   2.3480   2.3525   2.6286   2.8009   2.8016
     2.8018   2.8493   2.8500   3.1681   3.1694   3.3236   3.4509   3.4521
     3.4569   3.4574   3.4639   3.4643   3.5564   3.6536   3.6542   3.6764
     3.7443   3.7707   3.7878   3.7888   4.0043   4.0044   4.0587   4.0606
     4.1870   4.3665   4.5373   4.5392   4.6438   4.6445   4.6888   4.6889
     4.7763   4.7885   4.8267   4.9030   4.9589   5.0123   5.0127   5.0175
     5.4647   5.5824   5.6944   6.0360

          k = 0.2500-0.5000-0.5000 (  9225 PWs)   bands (ev):

    -5.5359  -5.2940  -4.8154  -4.5727  -4.5721  -4.3554  -4.3547  -4.1105
    -3.9368  -3.9360  -3.7114  -3.5901  -3.4439  -3.3596  -3.3587  -3.2031
    -2.7328  -2.7323  -2.7308  -2.7296  -2.6222  -2.6219  -2.4887  -2.4885
    -2.2873  -2.2856  -2.1472  -0.9049  -0.7460  -0.6764  -0.6758  -0.6000
    -0.5981  -0.5253  -0.5249  -0.4147  -0.4129  -0.2755  -0.2738  -0.2021
    -0.1108  -0.1106   0.2420   0.5403   0.5403   0.5666   1.2968   1.3637
     1.3639   1.9829   1.9836   2.1507   2.1512   2.1688   2.1694   2.2905
     2.3140   2.3144   2.3478   2.3479   2.3516   2.6285   2.8000   2.8020
     2.8021   2.8488   2.8495   3.1670   3.1684   3.3228   3.4499   3.4512
     3.4563   3.4568   3.4641   3.4644   3.5575   3.6534   3.6540   3.6754
     3.7437   3.7718   3.7873   3.7882   4.0040   4.0042   4.0572   4.0590
     4.1882   4.3650   4.5358   4.5378   4.6437   4.6444   4.6895   4.6895
     4.7777   4.7875   4.8257   4.9046   4.9606   5.0127   5.0131   5.0193
     5.4666   5.5819   5.6932   6.0385

          k = 0.5000 0.2500 0.5000 (  9225 PWs)   bands (ev):

    -5.5359  -5.2940  -4.8155  -4.5729  -4.5719  -4.3555  -4.3545  -4.1106
    -3.9367  -3.9358  -3.7116  -3.5905  -3.4440  -3.3593  -3.3585  -3.2031
    -2.7334  -2.7321  -2.7301  -2.7296  -2.6226  -2.6214  -2.4898  -2.4885
    -2.2863  -2.2857  -2.1472  -0.9049  -0.7460  -0.6776  -0.6761  -0.5985
    -0.5972  -0.5263  -0.5249  -0.4143  -0.4133  -0.2748  -0.2741  -0.2009
    -0.1119  -0.1107   0.2417   0.5391   0.5403   0.5677   1.2975   1.3628
     1.3640   1.9829   1.9836   2.1501   2.1509   2.1680   2.1691   2.2913
     2.3133   2.3142   2.3479   2.3488   2.3521   2.6283   2.8008   2.8013
     2.8022   2.8487   2.8495   3.1677   3.1684   3.3227   3.4504   3.4511
     3.4564   3.4566   3.4640   3.4648   3.5569   3.6538   3.6544   3.6753
     3.7436   3.7712   3.7872   3.7880   4.0035   4.0042   4.0588   4.0590
     4.1877   4.3653   4.5376   4.5379   4.6441   4.6450   4.6884   4.6895
     4.7771   4.7873   4.8267   4.9038   4.9599   5.0126   5.0136   5.0183
     5.4655   5.5827   5.6946   6.0372

          k =-0.1250 0.3750-0.3750 (  9245 PWs)   bands (ev):

    -5.6652  -5.0643  -4.8281  -4.4559  -4.4554  -4.3739  -4.3733  -4.1631
    -4.1624  -3.9891  -3.7916  -3.6553  -3.5255  -3.4078  -3.0777  -3.0767
    -3.0553  -3.0549  -2.7621  -2.7610  -2.3986  -2.3984  -2.3759  -2.3757
    -2.3487  -2.3469  -1.9389  -1.0898  -0.6813  -0.6797  -0.6790  -0.6770
    -0.6168  -0.6160  -0.4468  -0.4467  -0.4344  -0.2185  -0.2184  -0.0915
     0.0989   0.1006   0.3385   0.6915   0.7003   0.7003   1.1279   1.1279
     1.3097   1.8576   1.8585   2.0099   2.0103   2.0380   2.0444   2.0447
     2.0516   2.1347   2.1356   2.1708   2.1712   2.1995   2.3491   2.3497
     2.5446   3.1609   3.1735   3.1737   3.4205   3.4219   3.4768   3.4771
     3.5163   3.6428   3.6434   3.6448   3.7309   3.7315   3.7771   3.9042
     3.9044   3.9903   3.9916   3.9921   4.0713   4.0727   4.2752   4.2770
     4.3376   4.3713   4.3731   4.4198   4.4204   4.6859   4.8249   4.9780
     4.9781   4.9945   5.0815   5.1034   5.1090   5.1284   5.1555   5.1559
     5.3166   5.5258   5.7777   6.1595

          k = 0.1250-0.3750-0.3750 (  9245 PWs)   bands (ev):

    -5.6652  -5.0643  -4.8280  -4.4560  -4.4554  -4.3741  -4.3734  -4.1633
    -4.1626  -3.9891  -3.7912  -3.6548  -3.5254  -3.4073  -3.0780  -3.0770
    -3.0551  -3.0547  -2.7625  -2.7614  -2.3981  -2.3979  -2.3755  -2.3753
    -2.3497  -2.3479  -1.9377  -1.0912  -0.6825  -0.6804  -0.6798  -0.6782
    -0.6151  -0.6143  -0.4459  -0.4457  -0.4356  -0.2176  -0.2175  -0.0927
     0.0983   0.1000   0.3368   0.6914   0.7012   0.7012   1.1288   1.1289
     1.3096   1.8580   1.8589   2.0107   2.0111   2.0372   2.0450   2.0454
     2.0509   2.1359   2.1368   2.1704   2.1708   2.1995   2.3485   2.3491
     2.5438   3.1598   3.1738   3.1740   3.4192   3.4208   3.4771   3.4774
     3.5152   3.6425   3.6430   3.6459   3.7307   3.7313   3.7782   3.9039
     3.9041   3.9912   3.9913   3.9922   4.0702   4.0716   4.2741   4.2759
     4.3368   4.3699   4.3717   4.4197   4.4204   4.6874   4.8240   4.9786
     4.9787   4.9961   5.0833   5.1051   5.1072   5.1273   5.1560   5.1564
     5.3183   5.5247   5.7775   6.1621

          k = 0.3750 0.1250 0.3750 (  9245 PWs)   bands (ev):

    -5.6652  -5.0643  -4.8281  -4.4562  -4.4552  -4.3742  -4.3732  -4.1633
    -4.1623  -3.9892  -3.7916  -3.6548  -3.5254  -3.4076  -3.0777  -3.0769
    -3.0555  -3.0544  -2.7623  -2.7615  -2.3993  -2.3979  -2.3759  -2.3746
    -2.3486  -2.3480  -1.9381  -1.0907  -0.6820  -0.6808  -0.6787  -0.6773
    -0.6163  -0.6148  -0.4468  -0.4454  -0.4356  -0.2188  -0.2175  -0.0915
     0.0991   0.0998   0.3378   0.6909   0.7002   0.7013   1.1279   1.1291
     1.3101   1.8580   1.8587   2.0101   2.0109   2.0378   2.0444   2.0452
     2.0518   2.1353   2.1364   2.1707   2.1715   2.1994   2.3484   2.3492
     2.5437   3.1608   3.1731   3.1741   3.4202   3.4209   3.4769   3.4776
     3.5152   3.6423   3.6428   3.6454   3.7311   3.7317   3.7776   3.9036
     3.9040   3.9906   3.9913   3.9918   4.0709   4.0715   4.2756   4.2759
     4.3368   4.3715   4.3718   4.4200   4.4210   4.6867   4.8249   4.9775
     4.9786   4.9955   5.0823   5.1043   5.1077   5.1272   5.1559   5.1570
     5.3173   5.5259   5.7781   6.1608

          k = 0.0000 0.2500-0.2500 (  9243 PWs)   bands (ev):

    -5.7497  -4.7968  -4.7952  -4.3503  -4.3501  -4.3493  -4.3477  -4.2956
    -4.2950  -3.9584  -3.9569  -3.8256  -3.8235  -3.3538  -3.3534  -3.0871
    -2.7787  -2.7783  -2.7779  -2.7755  -2.4120  -2.4102  -2.3149  -2.3145
    -2.3138  -2.3128  -2.0018  -1.0054  -0.7387  -0.7381  -0.7373  -0.7362
    -0.5743  -0.5735  -0.3604  -0.3601  -0.3597  -0.3591   0.0428   0.0513
     0.0528   0.4814   0.4831   0.8805   0.8806   0.8823   0.8824   1.1478
     1.1488   1.7638   1.7648   1.7945   1.7961   1.8237   1.8533   1.8539
     1.8543   1.8544   1.9228   1.9239   1.9344   1.9713   1.9717   1.9723
     1.9736   3.4614   3.4617   3.5196   3.5213   3.5499   3.5503   3.7329
     3.7345   3.7692   3.8206   3.8226   3.8459   3.8463   3.8465   3.8473
     3.8909   3.8911   4.0572   4.0588   4.1991   4.1991   4.1996   4.2009
     4.4749   4.6669   4.6671   4.6673   4.6708   4.8506   4.8509   5.1684
     5.1710   5.1915   5.1938   5.2139   5.2139   5.2145   5.2152   5.3652
     5.3657   5.7100   5.9943   6.2248

          k = 0.0000-0.2500-0.2500 (  9243 PWs)   bands (ev):

    -5.7497  -4.7967  -4.7951  -4.3512  -4.3495  -4.3488  -4.3486  -4.2956
    -4.2951  -3.9580  -3.9566  -3.8255  -3.8235  -3.3537  -3.3533  -3.0865
    -2.7800  -2.7775  -2.7772  -2.7767  -2.4130  -2.4112  -2.3148  -2.3138
    -2.3131  -2.3127  -2.0005  -1.0071  -0.7398  -0.7387  -0.7379  -0.7373
    -0.5725  -0.5717  -0.3598  -0.3592  -0.3588  -0.3584   0.0411   0.0502
     0.0517   0.4810   0.4826   0.8814   0.8816   0.8832   0.8833   1.1477
     1.1487   1.7642   1.7651   1.7937   1.7953   1.8229   1.8542   1.8542
     1.8546   1.8552   1.9236   1.9247   1.9343   1.9705   1.9717   1.9722
     1.9727   3.4615   3.4618   3.5185   3.5203   3.5503   3.5507   3.7317
     3.7333   3.7703   3.8217   3.8237   3.8455   3.8463   3.8466   3.8470
     3.8907   3.8909   4.0564   4.0580   4.1984   4.1997   4.2002   4.2002
     4.4763   4.6640   4.6676   4.6677   4.6680   4.8497   4.8499   5.1705
     5.1725   5.1930   5.1957   5.2140   5.2147   5.2153   5.2155   5.3641
     5.3646   5.7076   5.9944   6.2275

          k = 0.5000 0.0000 0.0000 (  9229 PWs)   bands (ev):

    -5.6887  -4.7362  -4.7360  -4.7355  -4.7354  -4.7137  -3.8956  -3.8953
    -3.8947  -3.8944  -3.7743  -3.7738  -3.7738  -3.7733  -3.0261  -3.0255
    -3.0255  -3.0249  -2.8289  -2.7001  -2.6993  -2.6985  -2.6976  -1.9364
    -1.9356  -1.9356  -1.9348  -1.0326  -1.0317  -1.0317  -1.0309  -0.6035
    -0.6027  -0.6020  -0.6012  -0.2209   0.0126   0.0135   0.0136   0.0146
     0.0807   0.0809   0.0816   0.0818   1.0676   1.0690   1.0690   1.0704
     1.8096   1.8097   1.8108   1.8109   1.8759   1.8759   1.8759   1.8759
     1.9856   1.9858   1.9858   1.9859   2.2594   2.2599   2.2602   2.2607
     2.7553   3.3390   3.3396   3.3396   3.3403   3.4058   3.4062   3.4062
     3.4066   3.4444   3.4454   3.7790   3.7791   3.7791   3.7792   4.1220
     4.1225   4.1225   4.1229   4.1786   4.1799   4.1802   4.1815   4.3146
     4.3158   4.5255   4.5257   4.5260   4.5262   4.6498   4.6501   4.6508
     4.6511   4.8116   4.8132   4.8136   4.8152   5.5538   5.5559   5.5564
     5.5584   5.5740   5.8086   5.8107

          k = 0.6250-0.1250 0.1250 (  9244 PWs)   bands (ev):

    -5.6042  -5.0041  -4.8733  -4.7686  -4.7679  -4.5405  -3.9363  -3.9358
    -3.9006  -3.7291  -3.7282  -3.5948  -3.4768  -3.4763  -3.3449  -3.3442
    -2.9475  -2.9470  -2.9300  -2.8042  -2.8027  -2.7891  -2.5281  -1.9204
    -1.9191  -1.8820  -1.8818  -1.1072  -1.1056  -1.0130  -1.0128  -0.5928
    -0.5919  -0.5913  -0.5777  -0.4956  -0.4027  -0.0663  -0.0660  -0.0565
    -0.0551   0.3087   0.3134   0.3141   0.6460   0.6475   1.2454   1.2464
     1.5907   1.9573   1.9573   2.0537   2.0540   2.0871   2.0873   2.0883
     2.0884   2.2432   2.2437   2.4206   2.5078   2.5086   2.5448   2.6829
     3.0424   3.0425   3.0500   3.0921   3.0926   3.2734   3.2744   3.2828
     3.2831   3.2943   3.4077   3.6376   3.6380   3.8100   3.8104   3.8898
     4.0039   4.0039   4.0695   4.1476   4.1492   4.1928   4.1930   4.2126
     4.2672   4.2675   4.3364   4.3368   4.3998   4.4658   4.4876   4.5328
     4.6028   4.6594   4.7775   4.7788   4.8139   5.0356   5.4616   5.4923
     5.4948   5.6213   5.7252   5.7384

          k =-0.6250 0.1250 0.1250 (  9244 PWs)   bands (ev):

    -5.6042  -5.0040  -4.8733  -4.7687  -4.7681  -4.5403  -3.9364  -3.9358
    -3.9003  -3.7295  -3.7285  -3.5944  -3.4768  -3.4763  -3.3450  -3.3443
    -2.9474  -2.9469  -2.9293  -2.8049  -2.8034  -2.7885  -2.5281  -1.9209
    -1.9196  -1.8815  -1.8813  -1.1079  -1.1063  -1.0123  -1.0121  -0.5943
    -0.5906  -0.5899  -0.5778  -0.4968  -0.4038  -0.0653  -0.0651  -0.0568
    -0.0555   0.3079   0.3138   0.3144   0.6457   0.6472   1.2457   1.2468
     1.5893   1.9572   1.9572   2.0551   2.0553   2.0873   2.0875   2.0886
     2.0889   2.2428   2.2433   2.4200   2.5084   2.5091   2.5435   2.6823
     3.0430   3.0431   3.0499   3.0920   3.0924   3.2728   3.2737   3.2829
     3.2831   3.2934   3.4087   3.6373   3.6376   3.8098   3.8102   3.8896
     4.0041   4.0042   4.0707   4.1463   4.1480   4.1931   4.1932   4.2117
     4.2675   4.2678   4.3365   4.3369   4.4012   4.4646   4.4889   4.5318
     4.6042   4.6590   4.7767   4.7780   4.8155   5.0351   5.4637   5.4902
     5.4927   5.6232   5.7274   5.7370

          k =-0.1250-0.6250-0.1250 (  9244 PWs)   bands (ev):

    -5.6042  -5.0041  -4.8733  -4.7689  -4.7678  -4.5404  -3.9367  -3.9356
    -3.9006  -3.7293  -3.7284  -3.5944  -3.4770  -3.4759  -3.3450  -3.3440
    -2.9479  -2.9468  -2.9299  -2.8041  -2.8036  -2.7885  -2.5281  -1.9207
    -1.9198  -1.8820  -1.8806  -1.1077  -1.1066  -1.0130  -1.0116  -0.5930
    -0.5917  -0.5901  -0.5778  -0.4969  -0.4038  -0.0663  -0.0650  -0.0561
    -0.0548   0.3089   0.3129   0.3142   0.6458   0.6468   1.2458   1.2470
     1.5904   1.9572   1.9579   2.0540   2.0551   2.0867   2.0875   2.0882
     2.0890   2.2429   2.2435   2.4208   2.5080   2.5092   2.5438   2.6822
     3.0423   3.0430   3.0503   3.0915   3.0924   3.2731   3.2737   3.2828
     3.2837   3.2939   3.4082   3.6378   3.6381   3.8093   3.8101   3.8893
     4.0034   4.0042   4.0701   4.1473   4.1480   4.1919   4.1932   4.2116
     4.2671   4.2678   4.3365   4.3374   4.4006   4.4648   4.4883   4.5328
     4.6036   4.6596   4.7779   4.7788   4.8146   5.0346   5.4628   5.4924
     5.4928   5.6222   5.7261   5.7386

          k =-0.2500 0.7500-0.7500 (  9232 PWs)   bands (ev):

    -5.4745  -5.2332  -4.9886  -4.7571  -4.7565  -4.3038  -4.0564  -4.0559
    -3.8677  -3.6497  -3.6490  -3.5289  -3.5279  -3.3840  -3.1560  -3.1556
    -3.1442  -3.0398  -2.8983  -2.8969  -2.8394  -2.8389  -2.2041  -2.1051
    -2.1049  -1.9875  -1.9858  -0.9201  -0.9183  -0.9182  -0.9097  -0.9079
    -0.7118  -0.5947  -0.5475  -0.5469  -0.1865  -0.1850  -0.1814  -0.1811
    -0.1696   0.2211   0.2227   0.5332   0.5536   0.5540   1.2674   1.2680
     1.3644   2.0497   2.0500   2.2325   2.2328   2.2643   2.2647   2.3931
     2.3932   2.6335   2.6523   2.6532   2.7089   2.7094   2.7337   2.7339
     2.8530   2.8538   2.9951   3.1320   3.2034   3.2035   3.2037   3.2794
     3.2943   3.3156   3.3170   3.4098   3.5465   3.5469   3.5539   3.5545
     3.6421   3.6424   3.7767   3.9943   4.0340   4.0344   4.0517   4.0532
     4.2897   4.2897   4.3235   4.3780   4.4402   4.5569   4.5573   4.6231
     4.6595   4.6605   4.6811   4.6855   4.8320   4.8454   5.2520   5.2545
     5.3027   5.4359   5.6412   5.8918

          k = 0.2500-0.7500-0.7500 (  9232 PWs)   bands (ev):

    -5.4745  -5.2331  -4.9886  -4.7573  -4.7566  -4.3036  -4.0565  -4.0559
    -3.8675  -3.6498  -3.6491  -3.5293  -3.5283  -3.3834  -3.1560  -3.1555
    -3.1436  -3.0394  -2.8989  -2.8976  -2.8392  -2.8387  -2.2040  -2.1045
    -2.1044  -1.9883  -1.9866  -0.9202  -0.9173  -0.9169  -0.9105  -0.9088
    -0.7130  -0.5961  -0.5462  -0.5456  -0.1872  -0.1856  -0.1805  -0.1802
    -0.1704   0.2205   0.2222   0.5325   0.5543   0.5547   1.2681   1.2688
     1.3629   2.0498   2.0501   2.2334   2.2337   2.2658   2.2663   2.3933
[...]
     5.3802   5.6645   5.6651   5.6755

          k =-1.0000 0.2500-0.7500 (  9231 PWs)   bands (ev):

    -5.5049  -5.0248  -5.0233  -5.0176  -4.5581  -4.5566  -4.0807  -3.7128
    -3.7114  -3.6665  -3.6293  -3.6273  -3.4501  -3.4488  -3.2605  -3.2585
    -3.1726  -2.9939  -2.9925  -2.9621  -2.9608  -2.8364  -2.2184  -2.0404
    -2.0392  -1.7414  -1.6657  -1.3597  -1.1427  -0.9223  -0.9114  -0.9106
    -0.6343  -0.6334  -0.4989  -0.4976  -0.3880  -0.3870  -0.1049   0.1501
     0.1515   0.1797   0.1804   0.2842   0.7258   0.7560   0.7569   1.4172
     1.8044   1.8056   2.0321   2.1380   2.1775   2.1777   2.3488   2.4135
     2.4143   2.4463   2.6626   2.6638   2.7536   2.7729   2.7741   2.8007
     2.9599   2.9609   3.0032   3.0039   3.0055   3.0061   3.1612   3.1851
     3.2552   3.2831   3.3246   3.4164   3.4790   3.6491   3.6504   3.7802
     3.7821   3.8746   3.8759   4.0420   4.0429   4.0644   4.0649   4.1236
     4.1242   4.2855   4.3798   4.3807   4.4284   4.4298   4.5198   4.5201
     4.5205   4.5422   4.6162   4.7407   4.7422   4.7961   5.2915   5.3792
     5.3800   5.6645   5.6653   5.6733

          k =-0.1250 0.6250-0.8750 (  9242 PWs)   bands (ev):

    -5.3608  -5.2403  -5.1177  -4.9999  -4.5310  -4.3071  -4.1829  -3.9702
    -3.7405  -3.6590  -3.5498  -3.4887  -3.3036  -3.2887  -3.2770  -3.2427
    -3.1677  -3.1385  -3.1104  -3.0441  -2.8493  -2.6968  -2.3273  -2.2135
    -1.8897  -1.8447  -1.6992  -1.2479  -1.2216  -1.1580  -0.7281  -0.7039
    -0.6707  -0.6371  -0.6300  -0.5554  -0.2581  -0.2398  -0.0859   0.0055
     0.0132   0.0160   0.2738   0.3554   0.3737   0.7100   1.0727   1.4558
     1.5173   1.9487   2.1199   2.2100   2.2531   2.4557   2.5360   2.5458
     2.5585   2.6847   2.7606   2.8006   2.8212   2.8562   2.8606   2.8709
     2.9297   2.9814   2.9914   3.0853   3.1068   3.1221   3.1378   3.1715
     3.2364   3.2619   3.2732   3.2844   3.3903   3.3942   3.4789   3.4832
     3.4896   3.6163   3.7946   3.8173   3.9889   4.0202   4.0353   4.0678
     4.1587   4.2532   4.2611   4.2734   4.3180   4.3693   4.5893   4.6067
     4.6167   4.6177   4.6511   4.7507   4.7528   5.0152   5.1287   5.1332
     5.2068   5.4137   5.5910   5.8172

          k = 0.1250-0.6250-0.8750 (  9242 PWs)   bands (ev):

    -5.3608  -5.2402  -5.1177  -5.0000  -4.5312  -4.3068  -4.1829  -3.9702
    -3.7406  -3.6588  -3.5500  -3.4890  -3.3034  -3.2880  -3.2775  -3.2425
    -3.1670  -3.1383  -3.1108  -3.0447  -2.8492  -2.6967  -2.3268  -2.2143
    -1.8895  -1.8442  -1.7001  -1.2481  -1.2222  -1.1569  -0.7294  -0.7026
    -0.6721  -0.6382  -0.6287  -0.5542  -0.2572  -0.2401  -0.0862   0.0048
     0.0123   0.0168   0.2730   0.3547   0.3746   0.7109   1.0731   1.4562
     1.5156   1.9504   2.1202   2.2102   2.2536   2.4558   2.5355   2.5463
     2.5597   2.6848   2.7619   2.8002   2.8217   2.8550   2.8599   2.8701
     2.9314   2.9804   2.9920   3.0854   3.1070   3.1208   3.1382   3.1709
     3.2362   3.2616   3.2734   3.2854   3.3896   3.3940   3.4772   3.4826
     3.4894   3.6164   3.7940   3.8167   3.9885   4.0214   4.0343   4.0672
     4.1593   4.2530   4.2621   4.2740   4.3168   4.3686   4.5885   4.6081
     4.6170   4.6179   4.6512   4.7519   4.7529   5.0157   5.1268   5.1331
     5.2087   5.4116   5.5908   5.8196

          k = 0.8750 0.1250 0.6250 (  9242 PWs)   bands (ev):

    -5.3608  -5.2402  -5.1177  -4.9999  -4.5311  -4.3070  -4.1830  -3.9700
    -3.7405  -3.6590  -3.5500  -3.4890  -3.3035  -3.2880  -3.2768  -3.2425
    -3.1677  -3.1385  -3.1104  -3.0447  -2.8490  -2.6970  -2.3270  -2.2138
    -1.8895  -1.8443  -1.7001  -1.2482  -1.2221  -1.1570  -0.7295  -0.7034
    -0.6708  -0.6378  -0.6287  -0.5555  -0.2582  -0.2392  -0.0866   0.0046
     0.0130   0.0170   0.2732   0.3556   0.3745   0.7102   1.0721   1.4568
     1.5166   1.9497   2.1204   2.2103   2.2534   2.4560   2.5353   2.5461
     2.5592   2.6843   2.7610   2.8005   2.8221   2.8556   2.8610   2.8703
     2.9304   2.9809   2.9915   3.0859   3.1066   3.1213   3.1380   3.1711
     3.2357   3.2622   3.2726   3.2850   3.3892   3.3949   3.4778   3.4827
     3.4893   3.6162   3.7947   3.8166   3.9879   4.0205   4.0344   4.0675
     4.1593   4.2532   4.2620   4.2735   4.3170   4.3694   4.5895   4.6073
     4.6167   4.6170   4.6514   4.7514   4.7540   5.0154   5.1279   5.1321
     5.2078   5.4126   5.5920   5.8184

          k =-0.8750 0.1250-0.6250 (  9242 PWs)   bands (ev):

    -5.3608  -5.2402  -5.1177  -4.9999  -4.5311  -4.3069  -4.1828  -3.9703
    -3.7406  -3.6588  -3.5499  -3.4887  -3.3037  -3.2887  -3.2775  -3.2428
    -3.1670  -3.1383  -3.1108  -3.0440  -2.8495  -2.6964  -2.3271  -2.2140
    -1.8897  -1.8446  -1.6992  -1.2478  -1.2217  -1.1580  -0.7281  -0.7031
    -0.6721  -0.6376  -0.6301  -0.5541  -0.2571  -0.2406  -0.0854   0.0057
     0.0124   0.0159   0.2736   0.3545   0.3739   0.7107   1.0738   1.4551
     1.5163   1.9493   2.1198   2.2099   2.2533   2.4555   2.5361   2.5460
     2.5590   2.6853   2.7615   2.8003   2.8207   2.8557   2.8597   2.8706
     2.9307   2.9809   2.9918   3.0849   3.1070   3.1216   3.1380   3.1713
     3.2368   3.2613   3.2741   3.2849   3.3907   3.3933   3.4782   3.4832
     3.4898   3.6165   3.7938   3.8173   3.9896   4.0210   4.0352   4.0674
     4.1587   4.2529   4.2613   4.2739   4.3178   4.3686   4.5883   4.6076
     4.6170   4.6185   4.6510   4.7506   4.7524   5.0154   5.1277   5.1340
     5.2077   5.4127   5.5898   5.8184

          k = 0.6250 0.8750 0.1250 (  9242 PWs)   bands (ev):

    -5.3608  -5.2402  -5.1177  -4.9999  -4.5311  -4.3070  -4.1829  -3.9702
    -3.7407  -3.6591  -3.5497  -3.4886  -3.3034  -3.2880  -3.2775  -3.2424
    -3.1676  -3.1387  -3.1109  -3.0441  -2.8492  -2.6968  -2.3269  -2.2140
    -1.8896  -1.8444  -1.6996  -1.2480  -1.2220  -1.1576  -0.7294  -0.7030
    -0.6708  -0.6378  -0.6301  -0.5542  -0.2569  -0.2398  -0.0861   0.0045
     0.0135   0.0157   0.2727   0.3557   0.3734   0.7112   1.0731   1.4559
     1.5166   1.9494   2.1202   2.2103   2.2534   2.4554   2.5357   2.5458
     2.5591   2.6848   2.7614   2.8003   2.8213   2.8557   2.8606   2.8702
     2.9308   2.9809   2.9921   3.0853   3.1067   3.1214   3.1387   3.1712
     3.2361   3.2620   3.2733   3.2849   3.3897   3.3944   3.4776   3.4824
     3.4897   3.6155   3.7947   3.8164   3.9884   4.0210   4.0344   4.0682
     4.1584   4.2527   4.2613   4.2744   4.3170   4.3696   4.5894   4.6078
     4.6164   4.6179   4.6515   4.7508   4.7529   5.0158   5.1278   5.1331
     5.2077   5.4127   5.5910   5.8184

          k = 0.0000 0.5000-0.7500 (  9235 PWs)   bands (ev):

    -5.4143  -5.1730  -5.1714  -4.9303  -4.4602  -4.2419  -4.2404  -4.0216
    -3.8128  -3.8114  -3.5673  -3.5653  -3.3250  -3.3236  -3.2345  -3.2327
    -3.0822  -3.0806  -2.9872  -2.9858  -2.6532  -2.5303  -2.5290  -2.3780
    -2.1707  -1.8149  -1.6466  -1.4552  -1.0455  -0.9154  -0.6792  -0.6782
    -0.5785  -0.5776  -0.5306  -0.4347  -0.4339  -0.3110  -0.1639  -0.1629
    -0.1070  -0.1061   0.4962   0.4972   0.5480   0.5493   1.1475   1.3501
     1.3512   1.9582   2.0454   2.1079   2.2939   2.2944   2.5491   2.5503
     2.6376   2.6388   2.7069   2.7077   2.7823   2.7829   2.9383   2.9967
     3.0053   3.0919   3.0926   3.0942   3.1010   3.1018   3.1028   3.1964
     3.1968   3.2733   3.2745   3.2946   3.2959   3.3388   3.3710   3.3727
     3.4661   3.7677   3.7681   4.0182   4.0200   4.0299   4.0300   4.1038
     4.1453   4.1465   4.1968   4.3674   4.3686   4.4675   4.4679   4.7940
     4.8001   4.8033   4.8039   4.8044   4.9423   4.9430   4.9712   5.0056
     5.0647   5.4548   5.4554   5.9283

          k = 0.0000-0.5000-0.7500 (  9235 PWs)   bands (ev):

    -5.4142  -5.1730  -5.1714  -4.9304  -4.4604  -4.2420  -4.2405  -4.0213
    -3.8130  -3.8116  -3.5672  -3.5652  -3.3244  -3.3230  -3.2349  -3.2329
    -3.0828  -3.0811  -2.9869  -2.9855  -2.6527  -2.5301  -2.5288  -2.3787
    -2.1703  -1.8160  -1.6449  -1.4570  -1.0439  -0.9160  -0.6806  -0.6795
    -0.5772  -0.5763  -0.5291  -0.4353  -0.4345  -0.3120  -0.1649  -0.1639
    -0.1062  -0.1053   0.4958   0.4967   0.5490   0.5503   1.1457   1.3508
     1.3519   1.9599   2.0460   2.1081   2.2947   2.2951   2.5504   2.5516
     2.6366   2.6378   2.7070   2.7078   2.7823   2.7829   2.9401   2.9966
     3.0042   3.0911   3.0918   3.0945   3.1009   3.1015   3.1036   3.1960
     3.1963   3.2728   3.2740   3.2938   3.2951   3.3398   3.3697   3.3713
     3.4659   3.7671   3.7675   4.0193   4.0211   4.0293   4.0294   4.1018
     4.1448   4.1459   4.1965   4.3668   4.3680   4.4682   4.4686   4.7922
     4.8028   4.8030   4.8035   4.8066   4.9426   4.9433   4.9715   5.0073
     5.0628   5.4546   5.4552   5.9307

          k = 0.7500 0.0000 0.5000 (  9235 PWs)   bands (ev):

    -5.4142  -5.1722  -5.1721  -4.9303  -4.4603  -4.2413  -4.2411  -4.0214
    -3.8123  -3.8121  -3.5663  -3.5661  -3.3243  -3.3237  -3.2339  -3.2336
    -3.0820  -3.0814  -2.9865  -2.9862  -2.6530  -2.5298  -2.5292  -2.3784
    -2.1705  -1.8155  -1.6457  -1.4561  -1.0447  -0.9157  -0.6800  -0.6788
    -0.5781  -0.5767  -0.5299  -0.4352  -0.4339  -0.3115  -0.1643  -0.1635
    -0.1067  -0.1056   0.4959   0.4970   0.5488   0.5495   1.1466   1.3502
     1.3518   1.9590   2.0457   2.1080   2.2944   2.2946   2.5501   2.5507
     2.6371   2.6384   2.7071   2.7076   2.7820   2.7833   2.9392   2.9967
     3.0047   3.0911   3.0925   3.0944   3.1011   3.1015   3.1032   3.1960
     3.1967   3.2729   3.2743   3.2949   3.2949   3.3393   3.3711   3.3712
     3.4660   3.7671   3.7681   4.0194   4.0199   4.0295   4.0298   4.1028
     4.1453   4.1460   4.1966   4.3671   4.3684   4.4678   4.4683   4.7932
     4.8028   4.8032   4.8037   4.8039   4.9419   4.9437   4.9714   5.0065
     5.0638   5.4539   5.4561   5.9295

          k =-1.0000-0.2500 0.0000 (  9216 PWs)   bands (ev):

    -5.2922  -5.2906  -5.0525  -5.0524  -4.5831  -4.5829  -3.8973  -3.8959
    -3.4638  -3.4634  -3.4624  -3.4620  -3.3447  -3.3433  -3.3428  -3.3414
    -3.2017  -3.2006  -3.2001  -3.1989  -3.0209  -3.0196  -2.0052  -2.0045
    -1.5887  -1.5870  -1.5139  -1.5132  -1.4338  -1.4327  -0.9304  -0.9293
    -0.6285  -0.6276  -0.6271  -0.6262  -0.1423  -0.1413  -0.1410  -0.1400
     0.1080   0.1086   0.4744   0.4753   0.4759   0.4768   1.0785   1.0787
     2.0342   2.0360   2.3418   2.3425   2.3959   2.3961   2.4452   2.4455
     2.7020   2.7033   2.7033   2.7041   2.7066   2.7074   2.7412   2.7415
     2.7970   2.7974   3.0263   3.0282   3.2180   3.2182   3.2186   3.2189
     3.2390   3.2399   3.3987   3.3990   3.4135   3.4138   3.5590   3.5591
     3.5596   3.5596   3.9402   3.9406   3.9407   3.9412   3.9889   3.9890
     4.1752   4.1755   4.2574   4.2586   4.2592   4.2604   4.4253   4.4259
     4.5349   4.5363   4.5368   4.5382   4.8949   4.8954   5.2315   5.2320
     5.3985   5.4005   5.7144   5.7167

          k = 0.0000 1.0000-0.2500 (  9216 PWs)   bands (ev):

    -5.2914  -5.2914  -5.0532  -5.0517  -4.5838  -4.5822  -3.8967  -3.8964
    -3.4647  -3.4631  -3.4627  -3.4612  -3.3439  -3.3435  -3.3426  -3.3421
    -3.2014  -3.2007  -3.2000  -3.1993  -3.0205  -3.0200  -2.0054  -2.0042
    -1.5879  -1.5877  -1.5144  -1.5127  -1.4340  -1.4325  -0.9304  -0.9294
    -0.6286  -0.6275  -0.6271  -0.6261  -0.1426  -0.1413  -0.1410  -0.1397
     0.1076   0.1091   0.4745   0.4753   0.4759   0.4767   1.0778   1.0795
     2.0351   2.0351   2.3417   2.3426   2.3959   2.3961   2.4453   2.4454
     2.7028   2.7031   2.7035   2.7037   2.7068   2.7069   2.7409   2.7419
     2.7971   2.7973   3.0272   3.0273   3.2169   3.2184   3.2185   3.2199
     3.2394   3.2395   3.3986   3.3991   3.4131   3.4143   3.5586   3.5591
     3.5595   3.5600   3.9399   3.9404   3.9409   3.9414   3.9882   3.9898
     4.1751   4.1756   4.2584   4.2587   4.2591   4.2595   4.4248   4.4264
     4.5356   4.5363   4.5368   4.5375   4.8951   4.8953   5.2309   5.2327
     5.3991   5.3998   5.7152   5.7159

          k =-1.0000-0.5000 0.0000 (  9224 PWs)   bands (ev):

    -5.2027  -5.2018  -5.2012  -5.2004  -4.2672  -4.2663  -4.2663  -4.2654
    -3.4177  -3.4156  -3.4151  -3.4149  -3.4148  -3.4146  -3.4141  -3.4120
    -3.1748  -3.1739  -3.1734  -3.1724  -2.5268  -2.5263  -2.5257  -2.5252
    -1.5589  -1.5575  -1.5575  -1.5561  -1.4228  -1.4214  -0.6984  -0.6975
    -0.6971  -0.6961  -0.4023  -0.4020  -0.4008  -0.4005   0.1846   0.1855
     0.1865   0.1865   0.1868   0.1868   0.1878   0.1887   1.5526   1.5536
     1.5537   1.5548   2.2844   2.2852   2.3794   2.3797   2.3800   2.3803
     2.9565   2.9582   2.9585   2.9587   2.9587   2.9590   2.9592   2.9609
     3.0101   3.0104   3.0108   3.0110   3.0113   3.0115   3.0119   3.0121
     3.0703   3.0705   3.0707   3.0708   3.5263   3.5273   3.5278   3.5288
     3.6082   3.6085   3.6086   3.6089   4.0691   4.0702   4.0705   4.0707
     4.0708   4.0710   4.0713   4.0723   4.5632   4.5645   4.5650   4.5658
     4.5721   4.5723   4.5726   4.5730   4.9498   4.9506   4.9513   4.9521
     5.5336   5.5354   5.5355   5.5373

!    total energy              =    -427.80810920 Ry
     Harris-Foulkes estimate   =    -427.80810921 Ry
     estimated scf accuracy    <          8.4E-09 Ry

     The total energy is the sum of the following terms:

     one-electron contribution =     129.42874064 Ry
     hartree contribution      =      29.05331872 Ry
     xc contribution           =    -129.99678635 Ry
     ewald contribution        =    -456.29338221 Ry

     convergence has been achieved in   9 iterations

     Forces acting on atoms (Ry/au):

     atom    1 type  1   force =    -0.00390800    0.00000000    0.00000000
     atom    2 type  1   force =     0.00000793    0.00000000    0.00000000
     atom    3 type  1   force =     0.00000776    0.00000000    0.00000000
     atom    4 type  1   force =     0.00001044   -0.00000006   -0.00000027
     atom    5 type  1   force =     0.00005757    0.00006450   -0.00002342
     atom    6 type  1   force =     0.00005801   -0.00006520   -0.00002388
     atom    7 type  1   force =     0.00001044    0.00000006    0.00000027
     atom    8 type  1   force =     0.00005757   -0.00006450    0.00002342
     atom    9 type  1   force =     0.00005801    0.00006520    0.00002388
     atom   10 type  1   force =     0.00001044   -0.00000027   -0.00000006
     atom   11 type  1   force =     0.00005757   -0.00002342    0.00006450
     atom   12 type  1   force =     0.00005801   -0.00002388   -0.00006520
     atom   13 type  1   force =    -0.00015068    0.00002450    0.00002450
     atom   14 type  1   force =     0.00000963   -0.00001229   -0.00001229
     atom   15 type  1   force =     0.00000939    0.00001201    0.00001201
     atom   16 type  1   force =    -0.00015043    0.00002363   -0.00002363
     atom   17 type  1   force =     0.00000963    0.00001215   -0.00001215
     atom   18 type  1   force =     0.00001020   -0.00001217    0.00001217
     atom   19 type  1   force =     0.00001044    0.00000027    0.00000006
     atom   20 type  1   force =     0.00005757    0.00002342   -0.00006450
     atom   21 type  1   force =     0.00005801    0.00002388    0.00006520
     atom   22 type  1   force =    -0.00015043   -0.00002363    0.00002363
     atom   23 type  1   force =     0.00000963   -0.00001215    0.00001215
     atom   24 type  1   force =     0.00001020    0.00001217   -0.00001217
     atom   25 type  1   force =    -0.00015068   -0.00002450   -0.00002450
     atom   26 type  1   force =     0.00000963    0.00001229    0.00001229
     atom   27 type  1   force =     0.00000939   -0.00001201   -0.00001201
     atom   28 type  1   force =     0.00096465    0.00066374    0.00066374
     atom   29 type  1   force =    -0.00000729    0.00000257    0.00000257
     atom   30 type  1   force =    -0.00000225    0.00001210    0.00001210
     atom   31 type  1   force =    -0.00000734    0.00000259   -0.00000259
     atom   32 type  1   force =     0.00095792    0.00064992   -0.00064992
     atom   33 type  1   force =    -0.00000165    0.00001181   -0.00001181
     atom   34 type  1   force =    -0.00001623    0.00001196    0.00001940
     atom   35 type  1   force =    -0.00001581    0.00001191   -0.00001968
     atom   36 type  1   force =     0.00001003    0.00000310    0.00000028
     atom   37 type  1   force =    -0.00000734   -0.00000259    0.00000259
     atom   38 type  1   force =     0.00095792   -0.00064992    0.00064992
     atom   39 type  1   force =    -0.00000165   -0.00001181    0.00001181
     atom   40 type  1   force =     0.00096465   -0.00066374   -0.00066374
     atom   41 type  1   force =    -0.00000729   -0.00000257   -0.00000257
     atom   42 type  1   force =    -0.00000225   -0.00001210   -0.00001210
     atom   43 type  1   force =    -0.00001623   -0.00001196   -0.00001940
     atom   44 type  1   force =    -0.00001581   -0.00001191    0.00001968
     atom   45 type  1   force =     0.00001003   -0.00000310   -0.00000028
     atom   46 type  1   force =    -0.00001623    0.00001940    0.00001196
     atom   47 type  1   force =    -0.00001581   -0.00001968    0.00001191
     atom   48 type  1   force =     0.00001003    0.00000028    0.00000310
     atom   49 type  1   force =    -0.00001623   -0.00001940   -0.00001196
     atom   50 type  1   force =    -0.00001581    0.00001968   -0.00001191
     atom   51 type  1   force =     0.00001003   -0.00000028   -0.00000310
     atom   52 type  1   force =     0.00010241    0.00000000    0.00000000
     atom   53 type  1   force =     0.00010127    0.00000000    0.00000000
     atom   54 type  1   force =    -0.00001096    0.00000000    0.00000000

     Total force =     0.004755     Total SCF correction =     0.000144


     entering subroutine stress ...

          total   stress  (Ry/bohr**3)                   (kbar)     P=  -10.18
  -0.00006919   0.00000000   0.00000000        -10.18      0.00      0.00
   0.00000000  -0.00006918   0.00000075          0.00    -10.18      0.11
   0.00000000   0.00000075  -0.00006918          0.00      0.11    -10.18


     Writing output data file si-001.save
 
     init_run     :    411.91s CPU    427.72s WALL (       1 calls)
     electrons    :   6389.17s CPU   6516.70s WALL (       1 calls)
     forces       :     70.06s CPU     72.07s WALL (       1 calls)
     stress       :    230.25s CPU    232.27s WALL (       1 calls)

     Called by init_run:
     wfcinit      :    411.54s CPU    427.27s WALL (       1 calls)
     potinit      :      0.05s CPU      0.08s WALL (       1 calls)

     Called by electrons:
     c_bands      :   5735.71s CPU   5842.15s WALL (      10 calls)
     sum_band     :    652.84s CPU    673.82s WALL (      10 calls)
     v_of_rho     :      0.29s CPU      0.29s WALL (      10 calls)
     mix_rho      :      0.22s CPU      0.24s WALL (      10 calls)

     Called by c_bands:
     init_us_2    :     26.20s CPU     26.23s WALL (    2185 calls)
     cegterg      :   5667.68s CPU   5718.84s WALL (     950 calls)

     Called by *egterg:
     h_psi        :   4319.41s CPU   4326.90s WALL (    3119 calls)
     g_psi        :     46.91s CPU     46.95s WALL (    2074 calls)
     cdiaghg      :    153.18s CPU    153.47s WALL (    2929 calls)

     Called by h_psi:
     add_vuspsi   :    470.47s CPU    470.82s WALL (    3119 calls)

     General routines
     calbec       :    508.21s CPU    508.53s WALL (    3309 calls)
     fft          :      0.42s CPU      0.44s WALL (      46 calls)
     fftw         :   3710.31s CPU   3715.30s WALL (  674324 calls)
     davcio       :     23.43s CPU    113.52s WALL (    3135 calls)
 
     Parallel routines
     fft_scatter  :    148.96s CPU    149.96s WALL (  674370 calls)
     EXX routines
 
     PWSCF        :     1h58m CPU        2h 0m WALL

 
   This run was terminated on:   1:56:55  15Aug2012            

=------------------------------------------------------------------------------=
   JOB DONE.
=------------------------------------------------------------------------------=
